
 Primary working directories    : /tmpdir/job/2955593.undefined/molpro.EAECsM08Q3
 Secondary working directories  : /tmpdir/job/2955593.undefined/molpro.EAECsM08Q3
 Wavefunction directory         : /home/zcaposm/wfu/
 Main file repository           : /tmpdir/job/2955593.undefined/molpro.EAECsM08Q3/

 id        : uclcc

 Nodes                         nprocs
 node-d00a-119.myriad.ucl.ac.uk    1

 Using customized tuning parameters: mindgm=1; mindgv=20; mindgc=4; mindgr=1; noblas=0; minvec=7
 default implementation of scratch files=df  


 Variables initialized (945), CPU time= 0.01 sec
 ***,Methanol Ground State Energy with CCSD(T)-F12 and cc-pVTZ-F12
 memory,500,m;
 
 geometry={angstrom
 c
 o , 1, rco
 h , 2, roh, 1, acoh
 h1, 1, rch1, 2, aoch1  3  ahh1
 h2, 1, rch2, 2, aoch2, 3, ahh2
 h3, 1, rch3, 2, aoch3, 3, ahh3
 }
 
                                                ! Specify the initial values of the internal coordinates (in Angstroms and degrees)
 
 rco= 1.42077677
 roh= 0.96013932
 rch1= 1.081717515605
 rch2= 1.08440070258
 rch3= 1.091717515605
 acoh= 108.12930637
 aoch1= 111.6522152299
 aoch2= 107.18733878260001
 aoch3= 111.6522152299
 ahh1=61.43364279
 ahh2=180.0
 ahh3=298.56635721
 
                                                                                 ! Use the cc-pVTZ-F12 basis set
 basis=cc-pVTZ-F12
 
 hf
 
                                                                                 ! Use explicitly correlated F12 methods
                                                                            ! First, MP2-F12 (useful for initial electronic energy)
 {mp2-f12}
 
                                                                        ! If desired, perform CCSD(T)-F12 for more accurate results
 {ccsd(t)-f12}
 
                                                                                 ! Output the energy
 xxx = "mmm"
 point = 29
 text ### CH3OH
 table,xxx,rco,roh,rch1,rch2,rch3,acoh,aoch1,aoch2,aoch3,ahh1,ahh2,ahh3,energy,point
 DIGITS, 0, 8, 8, 8, 8, 8, 8, 8, 8, 8,  8,  8,  8, 8, 4
 save,CH3OH_MEP_MP2_29.dat,new
 
 Commands  initialized (802), CPU time= 0.00 sec, 659 directives.
 Default parameters read. Elapsed time= 0.16 sec

 Checking input...
 Passed
1


                                         ***  PROGRAM SYSTEM MOLPRO  ***
                                       Copyright, TTI GmbH Stuttgart, 2015
                                    Version 2020.1 linked Oct  6 2020 12:04:11


 **********************************************************************************************************************************
 LABEL *   Methanol Ground State Energy with CCSD(T)-F12 and cc-pVTZ-F12                 
  64 bit serial version                                                                  DATE: 08-Oct-24          TIME: 17:11:39  
 **********************************************************************************************************************************

 SHA1:             8c27446f6450a7499e38f603e13c65f775101d37
 **********************************************************************************************************************************

 Memory per process:       500 MW
 Total memory per node:    500 MW

 GA preallocation disabled
 GA check disabled

 Variable memory set to 500.0 MW

 SETTING RCO            =         1.42077677                                  
 SETTING ROH            =         0.96013932                                  
 SETTING RCH1           =         1.08171752                                  
 SETTING RCH2           =         1.08440070                                  
 SETTING RCH3           =         1.09171752                                  
 SETTING ACOH           =       108.12930637                                  
 SETTING AOCH1          =       111.65221523                                  
 SETTING AOCH2          =       107.18733878                                  
 SETTING AOCH3          =       111.65221523                                  
 SETTING AHH1           =        61.43364279                                  
 SETTING AHH2           =       180.00000000                                  
 SETTING AHH3           =       298.56635721                                  
 SETTING BASIS          =    CC-PVTZ-F12


 Recomputing integrals since basis changed


 Using spherical harmonics

 Library entry C      S cc-pVTZ-F12          selected for orbital group  1
 Library entry C      P cc-pVTZ-F12          selected for orbital group  1
 Library entry C      D cc-pVTZ-F12          selected for orbital group  1
 Library entry C      F cc-pVTZ-F12          selected for orbital group  1
 Library entry O      S cc-pVTZ-F12          selected for orbital group  2
 Library entry O      P cc-pVTZ-F12          selected for orbital group  2
 Library entry O      D cc-pVTZ-F12          selected for orbital group  2
 Library entry O      F cc-pVTZ-F12          selected for orbital group  2
 Library entry H      S cc-pVTZ-F12          selected for orbital group  3
 Library entry H      P cc-pVTZ-F12          selected for orbital group  3
 Library entry H      D cc-pVTZ-F12          selected for orbital group  3


 PROGRAM * SEWARD (Integral evaluation for generally contracted gaussian basis sets)     Author: Roland Lindh, 1990

 Geometry written to block  1 of record 700

 Orientation using atomic masses  
 Molecule type: Asymmetric top
 Rotational constants:      23.9726259     24.8353989    129.4230572 GHz  (calculated with average atomic masses)

 Point group  C1  



 ATOMIC COORDINATES

 NR  ATOM    CHARGE       X              Y              Z

   1  C       6.00    0.001757686    0.026023583   -1.376784911
   2  O       8.00   -0.001841989   -0.122311870    1.303990867
   3  H       1.00    0.017114040    1.568076189    1.962988234
   4  H1      1.00    1.681672056    0.955570163   -2.078482474
   5  H2      1.00   -0.019811506   -1.895111519   -2.089581293
   6  H3      1.00   -1.670681288    1.002859180   -2.087350509

 Bond lengths in Bohr (Angstrom)

 1-2  2.684878979  1-4  2.044149849  1-5  2.049220337  1-6  2.063047110  2-3  1.814400356
     ( 1.420776770)     ( 1.081717516)     ( 1.084400703)     ( 1.091717516)     ( 0.960139320)

 Bond angles

  1-2-3  108.12930637   2-1-4  111.65221523   2-1-5  107.18733878   2-1-6  111.65221523

  4-1-5  108.39459424   4-1-6  109.43105099   5-1-6  108.39459424

 NUCLEAR CHARGE:                   18
 NUMBER OF PRIMITIVE AOS:         228
 NUMBER OF SYMMETRY AOS:          206
 NUMBER OF CONTRACTIONS:          178   (  178A   )
 NUMBER OF INNER CORE ORBITALS:     0   (    0A   )
 NUMBER OF OUTER CORE ORBITALS:     2   (    2A   )
 NUMBER OF VALENCE ORBITALS:       12   (   12A   )


 NUCLEAR REPULSION ENERGY   40.38325584

 Eigenvalues of metric

         1 0.872E-04 0.183E-03 0.308E-03 0.320E-03 0.460E-03 0.493E-03 0.559E-03 0.568E-03


 Contracted 2-electron integrals neglected if value below      1.0D-11
 AO integral compression algorithm  1   Integral accuracy      1.0D-11

     615.252 MB (compressed) written to integral file ( 51.6%)


 NUMBER OF SORTED TWO-ELECTRON INTEGRALS:  126906346.     BUFFER LENGTH:  32768
 NUMBER OF SEGMENTS:   8  SEGMENT LENGTH:   15999503      RECORD LENGTH: 524288

 Memory used in sort:      16.56 MW

 SORT1 READ   149034713. AND WROTE   124823312. INTEGRALS IN    360 RECORDS. CPU TIME:     2.13 SEC, REAL TIME:    22.87 SEC
 SORT2 READ   124823312. AND WROTE   126906346. INTEGRALS IN   2347 RECORDS. CPU TIME:     1.91 SEC, REAL TIME:    39.02 SEC

 FILE SIZES:   FILE 1:   646.5 MBYTE,  FILE 4:  1510.0 MBYTE,   TOTAL:   2156.4 MBYTE

 OPERATOR DM      FOR CENTER  0  COORDINATES:    0.000000    0.000000    0.000000


 **********************************************************************************************************************************
 DATASETS  * FILE   NREC   LENGTH (MB)   RECORD NAMES
              1      19      567.12       500      610      700      900      950      970     1000      129      960     1100   
                                          VAR    BASINP    GEOM    SYMINP    ZMAT    AOBASIS   BASIS     P2S    ABASIS      S 
                                         1400     1410     1200     1210     1080     1600     1650     1300     1700   
                                           T        V       H0       H01     AOSYM     SMH    MOLCAS    ERIS     OPER   

 PROGRAMS   *        TOTAL       INT
 CPU TIMES  *         8.88      8.77
 REAL TIME  *        76.91 SEC
 DISK USED  *         2.16 GB
 **********************************************************************************************************************************


 PROGRAM * RHF-SCF (CLOSED SHELL)       Authors: W. Meyer, H.-J. Werner


 NUMBER OF ELECTRONS:       9+    9-    SPACE SYMMETRY=1    SPIN SYMMETRY: Singlet 
 CONVERGENCE THRESHOLDS:    1.00E-05 (Density)    1.00E-07 (Energy)
 MAX. NUMBER OF ITERATIONS:       60
 INTERPOLATION TYPE:            DIIS
 INTERPOLATION STEPS:              2 (START)      1 (STEP)
 LEVEL SHIFTS:                  0.00 (CLOSED)  0.00 (OPEN) 



 Orbital guess generated from atomic densities. Full valence occupancy:   14

 Molecular orbital dump at record        2100.2

 Initial occupancy:   9

 ITERATION    DDIFF          GRAD             ENERGY        2-EL.EN.            DIPOLE MOMENTS         DIIS   ORB.
    1      0.000D+00      0.000D+00      -115.06245321    164.560978    0.00910    0.90341   -0.47799    0    start
    2      0.000D+00      0.506D-02      -115.09079924    161.972267    0.00827    0.49804   -0.30596    1    diag
    3      0.480D-02      0.276D-02      -115.09824723    163.236792    0.00969    0.60145   -0.39878    2    diag
    4      0.163D-02      0.547D-03      -115.09878020    163.060088    0.01002    0.59648   -0.39439    3    diag
    5      0.437D-03      0.110D-03      -115.09881465    163.071139    0.01016    0.59259   -0.39931    4    diag
    6      0.122D-03      0.205D-04      -115.09881622    163.069153    0.01019    0.59276   -0.40012    5    diag
    7      0.350D-04      0.440D-05      -115.09881629    163.068640    0.01020    0.59258   -0.40040    6    diag
    8      0.877D-05      0.121D-05      -115.09881630    163.069054    0.01020    0.59258   -0.40042    0    orth

 Final occupancy:   9

 !RHF STATE  1.1 Energy              -115.098816296889
 Nuclear energy                        40.38325584
 One-electron energy                 -237.01659911
 Two-electron energy                   81.53452698
 Virial quotient                       -1.00088581
 !RHF STATE  1.1 Dipole moment          0.01020061     0.59257514    -0.40042078
 Dipole moment /Debye                   0.02592566     1.50607712    -1.01770144

 Orbital energies:

         1.1          2.1          3.1          4.1          5.1          6.1          7.1          8.1          9.1         10.1
    -20.556114   -11.268475    -1.356777    -0.927409    -0.691130    -0.622581    -0.594207    -0.504537    -0.452543     0.054573

        11.1
      0.065005


 HOMO      9.1    -0.452543 =     -12.3143eV
 LUMO     10.1     0.054573 =       1.4850eV
 LUMO-HOMO         0.507116 =      13.7993eV


 **********************************************************************************************************************************
 DATASETS  * FILE   NREC   LENGTH (MB)   RECORD NAMES
              1      19      567.12       500      610      700      900      950      970     1000      129      960     1100   
                                          VAR    BASINP    GEOM    SYMINP    ZMAT    AOBASIS   BASIS     P2S    ABASIS      S 
                                         1400     1410     1200     1210     1080     1600     1650     1300     1700   
                                           T        V       H0       H01     AOSYM     SMH    MOLCAS    ERIS     OPER   

              2       4        3.48       700     1000      520     2100   
                                         GEOM     BASIS   MCVARS     RHF  

 PROGRAMS   *        TOTAL    HF-SCF       INT
 CPU TIMES  *        16.76      7.88      8.77
 REAL TIME  *        89.12 SEC
 DISK USED  *         2.16 GB
 **********************************************************************************************************************************


 PROGRAM * MP2 (Closed-shell)     Authors: C. Hampel, H.-J. Werner, 1991, M. Deegan, P.J. Knowles, 1992

                                   MP2-F12 implementation by H.-J. Werner, 2007

                   Density fitting integral evaluation by F.R. Manby, 2003,2007, G. Knizia, 2010


 Basis set AUG-CC-PVTZ/JKFIT generated.  Number of basis functions:   392 
 Basis set CC-PVTZ-F12/OPTRI generated.  Number of basis functions:   314 
 Basis set AUG-CC-PVTZ/MP2FIT generated. Number of basis functions:   396 

 Convergence thresholds:  THRVAR = 1.00D-08  THRDEN = 1.00D-06

 Number of core orbitals:           2 (   2 )
 Number of closed-shell orbitals:   7 (   7 )
 Number of external orbitals:     169 ( 169 )

 Molecular orbitals read from record     2100.2  Type=RHF/CANONICAL (state 1.1)

 MP2-F12 correlation treatment (H.-J. Werner, 2006)
 ==================================================

 Using MP2-F12 with ansatz 3C(FIX)

 Using projected zeroth-order Hamiltonian (+Z)

 FOCKRIB=T FOCKRIC=T FOCKRIP=T CABSP=T CABSA=T CABSK=T CABSF=T GBC=F EBC=F DMAT=T NOFIK=T NOPAO=1 SOLVE=-1  USEPAO=0
 EXCH_A= T EXCH_B= F EXCH_C= F EXCH_P= F

 Geminal basis:    OPTFULL  GEM_TYPE=SLATER  BETA=1.0  NGEM=6

 Optimizing Gaussian exponents for each gem_beta

 Geminal optimization for beta= 1.0000
 Weight function:   m=0, omega= 1.4646

 Augmented Hessian optimization of geminal fit. Trust ratio= 0.40000
 Convergence reached after   2 iterations. Final gradient= 8.66D-16, Step= 4.23D-06, Delta= 1.28D-09

 Alpha:                 0.19532     0.81920     2.85917     9.50073    35.69989   197.79328
 Coeff:                 0.27070     0.30552     0.18297     0.10986     0.06810     0.04224


 All pairs explicitly correlated. Number of r12-pairs:           28

 Excluding core orbitals from MO domains

 AO(A)-basis ORBITAL           loaded. Number of functions:     178
 RI(R)-basis CC-PVTZ-F12/OPTRI loaded. Number of functions:     314
 DF-basis AUG-CC-PVTZ/JKFIT    loaded. Number of functions:     392

 Screening thresholds:   THRAO=  1.00D-10  THRMO=  1.00D-09  THRPROD=  1.00D-09
                         THRSW=  1.00D-05  THROV=  1.00D-12  THRAOF12= 1.00D-08

 CPU time for Fock operators                      1.56 sec

 Construction of ABS:
 Smallest eigenvalue of S          4.28E-04  (threshold= 1.00E-08)
 Ratio eigmin/eigmax               5.46E-05  (threshold= 1.00E-09)
 Smallest eigenvalue of S kept     4.28E-04  (threshold= 4.28E-04, 0 functions deleted, 314 kept)

 Construction of CABS:
 Smallest eigenvalue of S          7.12E-07  (threshold= 1.00E-08)
 Ratio eigmin/eigmax               7.12E-07  (threshold= 1.00E-09)
 Smallest eigenvalue of S kept     7.12E-07  (threshold= 7.12E-07, 0 functions deleted, 314 kept)

 CPU time for CABS singles                        0.04 sec

 CABS-singles contribution of  -0.00135688 patched into reference energy.
 New reference energy        -115.10017318

 AO(A)-basis ORBITAL           loaded. Number of functions:     178
 RI(R)-basis CC-PVTZ-F12/OPTRI loaded. Number of functions:     314
 DF-basis AUG-CC-PVTZ/MP2FIT   loaded. Number of functions:     396

 Screening thresholds:   THRAO=  1.00D-10  THRMO=  1.00D-09  THRPROD=  1.00D-09
                         THRSW=  1.00D-05  THROV=  1.00D-12  THRAOF12= 1.00D-08

 CPU time for 3-index integral evaluation         3.50 sec
 CPU time for first  half transformation          0.28 sec ( 8818.0 MFLOP/sec)
 CPU time for second half transformation          0.02 sec ( 3108.5 MFLOP/sec)
 CPU time for fitting                             0.02 sec (56971.3 MFLOP/sec)
 CPU time for tilde quantities                    0.02 sec (75522.6 MFLOP/sec)
 CPU time for assembly                            0.20 sec (61768.0 MFLOP/sec)
 CPU time for tranop_f12                          0.29 sec (54690.4 MFLOP/sec)
 CPU time for f12 integrals (total)               4.74 sec, Elapsed time:      5.69 sec
 CPU time for f12 matrices (total)                0.11 sec, Elapsed time:      0.17 sec

 Diagonal F12 approximation with fixed coefficients:  TSING= 0.500,  TTRIP= 0.250 (scaled by -1/beta)

 DF-MP2-F12 energy corrections:
 ==============================
 Approx.                                    Singlet             Triplet             Total
 DF-MP2-F12/3*C(DX,FIX)                -0.038307686049     -0.004215205571     -0.042522891621
 DF-MP2-F12/3*C(FIX)                   -0.036104375271     -0.003932893583     -0.040037268854
 DF-MP2-F12/3C(FIX)                    -0.036046826403     -0.004067756295     -0.040114582698

 DF-MP2-F12 correlation energies:
 ================================
 Approx.                                    Singlet             Triplet             Ecorr            Total Energy
 DF-MP2                                -0.291012125398     -0.152359007092     -0.443371132490   -115.543544312361
 DF-MP2-F12/3*C(DX,FIX)                -0.329319811447     -0.156574212664     -0.485894024111   -115.586067203981
 DF-MP2-F12/3*C(FIX)                   -0.327116500669     -0.156291900675     -0.483408401344   -115.583581581215
 DF-MP2-F12/3C(FIX)                    -0.327058951801     -0.156426763387     -0.483485715188   -115.583658895059

 SCS-DF-MP2 energies (F_SING= 1.20000  F_TRIP= 0.62222  F_PARALLEL= 0.33333):
 ============================================================================
 SCS-DF-MP2                            -0.444015710446   -115.544188890317
 SCS-DF-MP2-F12/3*C(DX,FIX)            -0.492607728283   -115.592780908154
 SCS-DF-MP2-F12/3*C(FIX)               -0.489788094556   -115.589961274427
 SCS-DF-MP2-F12/3C(FIX)                -0.489802950491   -115.589976130362
 Symmetry transformation completed.

 Number of N-1 electron functions:               7
 Number of N-2 electron functions:              28
 Number of singly external CSFs:              1183
 Number of doubly external CSFs:            700336
 Total number of CSFs:                      701520

 Length of J-op  integral file:             104.98 MB
 Length of K-op  integral file:             138.67 MB

 Integral transformation finished. Total CPU:   1.34 sec, npass=  1  Memory used:   2.18 MW

 ITER.      SQ.NORM     CORR.ENERGY   TOTAL ENERGY   ENERGY CHANGE     VAR   MIC
   1      1.00000000    -0.44343742  -115.54361060    -0.44343742  0.00D+00   0
   2      1.11456126    -0.44343742  -115.54361060     0.00000000 -0.16D-18   0

 Solving MP2-F12 equations

   1      1.11452510    -0.48279412  -115.58296730    -0.03935670 -0.37D-04   0
   2      1.11452510    -0.48355061  -115.58372379    -0.00075649  0.38D-18   0
   3      1.11452510    -0.48355061  -115.58372379     0.00000000 -0.37D-19   0

 CPU TIME FOR ITERATIVE MP2:    0.09 SEC


 MP2-F12 energy corrections:
 ===========================
 Approx.                                    Singlet             Triplet             Total
 MP2-F12/3*C(DX,FIX)                   -0.038307686049     -0.004215205571     -0.042522891621
 MP2-F12/3*C(FIX)                      -0.036104375271     -0.003932893583     -0.040037268854
 MP2-F12/3C(FIX)                       -0.036044125931     -0.004069059760     -0.040113185690

 MP2-F12 correlation energies:
 =============================
 Approx.                                    Singlet             Triplet             Ecorr            Total Energy
 MP2                                   -0.291195323766     -0.152242096685     -0.443437420452   -115.543610600322
 MP2-F12/3*C(DX,FIX)                   -0.329503009816     -0.156457302256     -0.485960312072   -115.586133491943
 MP2-F12/3*C(FIX)                      -0.327299699038     -0.156174990268     -0.483474689306   -115.583647869176
 MP2-F12/3C(FIX)                       -0.327239449697     -0.156311156445     -0.483550606142   -115.583723786013

 SCS-MP2 energies (F_SING= 1.20000  F_TRIP= 0.62222  F_PARALLEL= 0.33333):
 =========================================================================
 SCS-MP2                               -0.444162804235   -115.544335984106
 SCS-MP2-F12/3*C(DX,FIX)               -0.492754822072   -115.592928001942
 SCS-MP2-F12/3*C(FIX)                  -0.489935188345   -115.590108368216
 SCS-MP2-F12/3C(FIX)                   -0.489947614758   -115.590120794628


  Reference energy                   -115.098816296889
  F12 singles correction               -0.001356882982

 F12 singles corrections added to reference energy

  New reference energy               -115.100173179871

  F12/3C(F) singlet correction         -0.036044125931
  F12/3C(F) triplet correction         -0.004069059760
  F12/3C(F) total correction           -0.040113185690
  MP2-F12/3C(F) singlet pair energy    -0.327239449697
  MP2-F12/3C(F) triplet pair energy    -0.156311156445
  MP2-F12/3C(F) correlation energy     -0.483550606142

 !MP2-F12/3C(F) total energy         -115.583723786013


 **********************************************************************************************************************************
 DATASETS  * FILE   NREC   LENGTH (MB)   RECORD NAMES
              1      20      578.29       500      610      700      900      950      970     1000      129      960     1100   
                                          VAR    BASINP    GEOM    SYMINP    ZMAT    AOBASIS   BASIS     P2S    ABASIS      S 
                                         1400     1410     1200     1210     1080     1600     1650     1300     1700     1380   
                                           T        V       H0       H01     AOSYM     SMH    MOLCAS    ERIS     OPER     JKOP   

              2       7        4.13       700     1000      520     2100     7360     7350     7000   
                                         GEOM     BASIS   MCVARS     RHF    F12ABS    EF12   

 PROGRAMS   *        TOTAL   MP2-F12    HF-SCF       INT
 CPU TIMES  *        24.86      8.10      7.88      8.77
 REAL TIME  *       100.40 SEC
 DISK USED  *         2.16 GB
 **********************************************************************************************************************************


 PROGRAM * CCSD (Closed-shell coupled cluster)     Authors: C. Hampel, H.-J. Werner, 1991, M. Deegan, P.J. Knowles, 1992

                                  CCSD-F12 implementation by  H.-J. Werner, 2007

                   Density fitting integral evaluation by F.R. Manby, 2003,2007, G. Knizia, 2010



 Convergence thresholds:  THRVAR = 1.00D-08  THRDEN = 1.00D-06

 CCSD(T)     terms to be evaluated (factor= 1.000)


 Number of core orbitals:           2 (   2 )
 Number of closed-shell orbitals:   7 (   7 )
 Number of external orbitals:     169 ( 169 )

 Molecular orbitals read from record     2100.2  Type=RHF/CANONICAL (state 1.1)

 MP2-F12 correlation treatment (H.-J. Werner, 2006)
 ==================================================

 Using MP2-F12 with ansatz 3C(FIX)

 Using projected zeroth-order Hamiltonian (+Z)

 FOCKRIB=T FOCKRIC=T FOCKRIP=T CABSP=T CABSA=T CABSK=T CABSF=T GBC=F EBC=F DMAT=T NOFIK=T NOPAO=1 SOLVE=-1  USEPAO=0
 EXCH_A= T EXCH_B= F EXCH_C= F EXCH_P= F

 Geminal basis:    OPTFULL  GEM_TYPE=SLATER  BETA=1.0  NGEM=6

 Optimizing Gaussian exponents for each gem_beta

 Geminal optimization for beta= 1.0000
 Weight function:   m=0, omega= 1.4646

 Augmented Hessian optimization of geminal fit. Trust ratio= 0.40000
 Convergence reached after   2 iterations. Final gradient= 8.66D-16, Step= 4.23D-06, Delta= 1.28D-09

 Alpha:                 0.19532     0.81920     2.85917     9.50073    35.69989   197.79328
 Coeff:                 0.27070     0.30552     0.18297     0.10986     0.06810     0.04224


 All pairs explicitly correlated. Number of r12-pairs:           28

 Excluding core orbitals from MO domains

 AO(A)-basis ORBITAL           loaded. Number of functions:     178
 RI(R)-basis CC-PVTZ-F12/OPTRI loaded. Number of functions:     314
 DF-basis AUG-CC-PVTZ/JKFIT    loaded. Number of functions:     392

 Screening thresholds:   THRAO=  1.00D-10  THRMO=  1.00D-09  THRPROD=  1.00D-09
                         THRSW=  1.00D-05  THROV=  1.00D-12  THRAOF12= 1.00D-08

 CPU time for Fock operators                      1.55 sec

 Construction of ABS:
 Smallest eigenvalue of S          4.28E-04  (threshold= 1.00E-08)
 Ratio eigmin/eigmax               5.46E-05  (threshold= 1.00E-09)
 Smallest eigenvalue of S kept     4.28E-04  (threshold= 4.28E-04, 0 functions deleted, 314 kept)

 Construction of CABS:
 Smallest eigenvalue of S          7.12E-07  (threshold= 1.00E-08)
 Ratio eigmin/eigmax               7.12E-07  (threshold= 1.00E-09)
 Smallest eigenvalue of S kept     7.12E-07  (threshold= 7.12E-07, 0 functions deleted, 314 kept)

 CPU time for CABS singles                        0.04 sec

 CABS-singles contribution of  -0.00135688 patched into reference energy.
 New reference energy        -115.10017318

 AO(A)-basis ORBITAL           loaded. Number of functions:     178
 RI(R)-basis CC-PVTZ-F12/OPTRI loaded. Number of functions:     314
 DF-basis AUG-CC-PVTZ/MP2FIT   loaded. Number of functions:     396

 Screening thresholds:   THRAO=  1.00D-10  THRMO=  1.00D-09  THRPROD=  1.00D-09
                         THRSW=  1.00D-05  THROV=  1.00D-12  THRAOF12= 1.00D-08

 CPU time for 3-index integral evaluation         3.50 sec
 CPU time for first  half transformation          0.23 sec (10735.0 MFLOP/sec)
 CPU time for second half transformation          0.02 sec ( 3108.5 MFLOP/sec)
 CPU time for sorting                             0.01 sec
 CPU time for fitting                             0.02 sec (56971.3 MFLOP/sec)
 CPU time for tilde quantities                    0.02 sec (75522.6 MFLOP/sec)
 CPU time for assembly                            0.19 sec (65018.9 MFLOP/sec)
 CPU time for tranop_f12                          0.26 sec (61000.9 MFLOP/sec)
 CPU time for f12 integrals (total)               4.68 sec, Elapsed time:      5.20 sec
 CPU time for f12 matrices (total)                0.11 sec, Elapsed time:      0.14 sec

 Diagonal F12 approximation with fixed coefficients:  TSING= 0.500,  TTRIP= 0.250 (scaled by -1/beta)

 DF-MP2-F12 energy corrections:
 ==============================
 Approx.                                    Singlet             Triplet             Total
 DF-MP2-F12/3*C(DX,FIX)                -0.038307686049     -0.004215205571     -0.042522891621
 DF-MP2-F12/3*C(FIX)                   -0.036104375271     -0.003932893583     -0.040037268854
 DF-MP2-F12/3C(FIX)                    -0.036046826403     -0.004067756295     -0.040114582698

 DF-MP2-F12 correlation energies:
 ================================
 Approx.                                    Singlet             Triplet             Ecorr            Total Energy
 DF-MP2                                -0.291012125398     -0.152359007092     -0.443371132490   -115.543544312361
 DF-MP2-F12/3*C(DX,FIX)                -0.329319811447     -0.156574212664     -0.485894024111   -115.586067203981
 DF-MP2-F12/3*C(FIX)                   -0.327116500669     -0.156291900675     -0.483408401344   -115.583581581215
 DF-MP2-F12/3C(FIX)                    -0.327058951801     -0.156426763387     -0.483485715188   -115.583658895059

 SCS-DF-MP2 energies (F_SING= 1.20000  F_TRIP= 0.62222  F_PARALLEL= 0.33333):
 ============================================================================
 SCS-DF-MP2                            -0.444015710446   -115.544188890317
 SCS-DF-MP2-F12/3*C(DX,FIX)            -0.492607728283   -115.592780908154
 SCS-DF-MP2-F12/3*C(FIX)               -0.489788094556   -115.589961274427
 SCS-DF-MP2-F12/3C(FIX)                -0.489802950491   -115.589976130362
 Symmetry transformation completed.

 Number of N-1 electron functions:               7
 Number of N-2 electron functions:              28
 Number of singly external CSFs:              1183
 Number of doubly external CSFs:            700336
 Total number of CSFs:                      701520

 Length of J-op  integral file:             105.23 MB
 Length of K-op  integral file:             138.67 MB
 Length of 3-ext integral record:             0.00 MB

 Memory could be reduced to 48.01 Mwords without degradation in triples

 Integral transformation finished. Total CPU:   3.14 sec, npass=  1  Memory used:  24.86 MW

 Reference energy:                   -115.10017318

 Adding F12 terms to K(Cij), methodcc=6,  factor= 1.0

 ITER.      SQ.NORM     CORR.ENERGY   TOTAL ENERGY   ENERGY CHANGE        DEN1      VAR(S)    VAR(P)  DIIS     TIME  TIME/IT
   1      1.11742154    -0.45275712  -115.55293030    -0.00931970     0.00165416  0.15D-02  0.19D-02  1  1    12.52     6.18
   2      1.12479821    -0.45311365  -115.55328683    -0.00035653    -0.00902543  0.24D-04  0.23D-03  2  2    15.35     6.68
   3      1.12750812    -0.45328959  -115.55346277    -0.00017594    -0.00185571  0.15D-04  0.13D-04  3  3    18.12     5.81
   4      1.12844837    -0.45330753  -115.55348071    -0.00001794    -0.00059663  0.86D-06  0.12D-05  4  4    20.91     5.91
   5      1.12860311    -0.45330902  -115.55348219    -0.00000149    -0.00003762  0.23D-06  0.10D-06  5  5    23.66     5.77
   6      1.12864548    -0.45330665  -115.55347983     0.00000236    -0.00000420  0.36D-07  0.95D-08  6  6    26.40     5.51
   7      1.12865660    -0.45330578  -115.55347896     0.00000087    -0.00000297  0.39D-08  0.14D-08  6  1    29.23     5.87
   8      1.12865840    -0.45330584  -115.55347902    -0.00000006     0.00000033  0.67D-09  0.20D-09  6  3    32.01     5.63

 Norm of t1 vector:      0.04992112      S-energy:     0.00000015      T1 diagnostic:  0.00943421
                                                                       D1 diagnostic:  0.01999221

 Adding energy correction from Wij-K(Fij), methodcc=6  factor= 1.0

  CCSD correlation energy              -0.453305842581
  MP2-F12 correction (uncoupled)       -0.038563946210
  C*T doubles correction               -0.001164388885
  f12b correction                       0.007098863106


 Total CPU time for triples:     34.57 sec


 RESULTS
 =======

  Reference energy                   -115.098816296889
  F12 singles correction               -0.001356882982

 F12 singles corrections added to reference energy

  New reference energy               -115.100173179871

  F12a singlet correction              -0.035807777259
  F12a triplet correction              -0.003920557835
  F12a total correction                -0.039728335095

 F12a corrections for ansatz F12/3C(FIX) added to CCSD energy

  CCSD-F12a singlet pair energy        -0.351094195724
  CCSD-F12a triplet pair energy        -0.141940133157
  CCSD-F12a correlation energy         -0.493034177676

  Triples (T) contribution             -0.015990593299
  Total correlation energy             -0.509024770975

  CCSD-F12a total energy             -115.593207357547
  CCSD[T]-F12a energy                -115.609748693748
  CCSD-T-F12a energy                 -115.608955294052
 !CCSD(T)-F12a total energy          -115.609197950846

 F12b corrections for ansatz F12/3C(FIX) added to CCSD(T)-F12a energy

  CCSD-F12b singlet pair energy        -0.344457673366
  CCSD-F12b triplet pair energy        -0.141477792409
  CCSD-F12b correlation energy         -0.485935314570

  Triples (T) contribution             -0.015990593299
  Total correlation energy             -0.501925907869

  CCSD-F12b total energy             -115.586108494440
  CCSD[T]-F12b energy                -115.602649830641
  CCSD-T-F12b energy                 -115.601856430946
 !CCSD(T)-F12b total energy          -115.602099087740

 Timing summary (sec):

 STEP                 CPU(USER)    SYS     CPU(TOT)    WALL
 Transformation          3.20      1.31      4.51      8.91
 CCSD iterations        22.35      7.94     30.29     45.38
 Triples                34.57      1.06     35.63     35.85
 MP2-F12                 6.47      0.51      6.98      7.21
 F12b energy             2.18      0.14      2.32      2.39

 Program statistics:

 Available memory in ccsd:               499999646
 Min. memory needed in ccsd:               2228017
 Max. memory used in ccsd:                 2807120
 Max. memory used in cckext:               2027429 ( 9 integral passes)



 **********************************************************************************************************************************
 DATASETS  * FILE   NREC   LENGTH (MB)   RECORD NAMES
              1      20      714.24       500      610      700      900      950      970     1000      129      960     1100   
                                          VAR    BASINP    GEOM    SYMINP    ZMAT    AOBASIS   BASIS     P2S    ABASIS      S 
                                         1400     1410     1200     1210     1080     1600     1650     1300     1700     1380   
                                           T        V       H0       H01     AOSYM     SMH    MOLCAS    ERIS     OPER     JKOP   

              2       7        4.13       700     1000      520     2100     7360     7350     7000   
                                         GEOM     BASIS   MCVARS     RHF    F12ABS    EF12   

 PROGRAMS   *        TOTAL   CCSD(T)   MP2-F12    HF-SCF       INT
 CPU TIMES  *        93.66     68.80      8.10      7.88      8.77
 REAL TIME  *       200.32 SEC
 DISK USED  *         2.16 GB
 **********************************************************************************************************************************
 SETTING XXX            =    "MMM"
 SETTING POINT          =        29.00000000                                  

 *** ### CH3OH


 XXX       RCO          ROH          RCH1         RCH2         RCH3           ACOH           AOCH1          AOCH2          AOCH3         AHH1           AHH2           AHH3            ENERGY       POINT
 "MMM"   1.42077677   0.96013932   1.08171752   1.08440070   1.09171752   108.12930637   111.65221523   107.18733878   111.65221523   61.43364279   180.00000000   298.56635721   -115.60919795   29.0000
                                                  

 CCSD(T)-F12/cc-pVTZ-F12 energy=   -115.602099087740

     CCSD(T)-F12         MP2-F12          HF-SCF
   -115.60209909   -115.58372379   -115.09881630
 **********************************************************************************************************************************
 Molpro calculation terminated
