
 Primary working directories    : /tmpdir/job/2955676.undefined/molpro.XQmTJQbQsj
 Secondary working directories  : /tmpdir/job/2955676.undefined/molpro.XQmTJQbQsj
 Wavefunction directory         : /home/zcaposm/wfu/
 Main file repository           : /tmpdir/job/2955676.undefined/molpro.XQmTJQbQsj/

 id        : uclcc

 Nodes                         nprocs
 node-d00a-116.myriad.ucl.ac.uk    1

 Using customized tuning parameters: mindgm=1; mindgv=20; mindgc=4; mindgr=1; noblas=0; minvec=7
 default implementation of scratch files=df  


 Variables initialized (945), CPU time= 0.00 sec
 ***,Methanol Ground State Energy with CCSD(T)-F12 and cc-pVTZ-F12
 memory,500,m;
 
 geometry={angstrom
 c
 o , 1, rco
 h , 2, roh, 1, acoh
 h1, 1, rch1, 2, aoch1  3  ahh1
 h2, 1, rch2, 2, aoch2, 3, ahh2
 h3, 1, rch3, 2, aoch3, 3, ahh3
 }
 
                                                ! Specify the initial values of the internal coordinates (in Angstroms and degrees)
 
 rco= 1.42077677
 roh= 0.96013932
 rch1= 1.091717515605
 rch2= 1.08440070258
 rch3= 1.091717515605
 acoh= 108.12930637
 aoch1= 111.6522152299
 aoch2= 107.18733878260001
 aoch3= 111.6522152299
 ahh1=60.96223826920898
 ahh2=180.23570226039553
 ahh3=298.8020594703955
 
                                                                                 ! Use the cc-pVTZ-F12 basis set
 basis=cc-pVTZ-F12
 
 hf
 
                                                                                 ! Use explicitly correlated F12 methods
                                                                            ! First, MP2-F12 (useful for initial electronic energy)
 {mp2-f12}
 
                                                                        ! If desired, perform CCSD(T)-F12 for more accurate results
 {ccsd(t)-f12}
 
                                                                                 ! Output the energy
 xxx = "mmm"
 point = 105
 text ### CH3OH
 table,xxx,rco,roh,rch1,rch2,rch3,acoh,aoch1,aoch2,aoch3,ahh1,ahh2,ahh3,energy,point
 DIGITS, 0, 8, 8, 8, 8, 8, 8, 8, 8, 8,  8,  8,  8, 8, 4
 save,CH3OH_MEP_MP2_105.dat,new
 
 Commands  initialized (802), CPU time= 0.01 sec, 659 directives.
 Default parameters read. Elapsed time= 0.11 sec

 Checking input...
 Passed
1


                                         ***  PROGRAM SYSTEM MOLPRO  ***
                                       Copyright, TTI GmbH Stuttgart, 2015
                                    Version 2020.1 linked Oct  6 2020 12:04:11


 **********************************************************************************************************************************
 LABEL *   Methanol Ground State Energy with CCSD(T)-F12 and cc-pVTZ-F12                 
  64 bit serial version                                                                  DATE: 08-Oct-24          TIME: 17:30:43  
 **********************************************************************************************************************************

 SHA1:             8c27446f6450a7499e38f603e13c65f775101d37
 **********************************************************************************************************************************

 Memory per process:       500 MW
 Total memory per node:    500 MW

 GA preallocation disabled
 GA check disabled

 Variable memory set to 500.0 MW

 SETTING RCO            =         1.42077677                                  
 SETTING ROH            =         0.96013932                                  
 SETTING RCH1           =         1.09171752                                  
 SETTING RCH2           =         1.08440070                                  
 SETTING RCH3           =         1.09171752                                  
 SETTING ACOH           =       108.12930637                                  
 SETTING AOCH1          =       111.65221523                                  
 SETTING AOCH2          =       107.18733878                                  
 SETTING AOCH3          =       111.65221523                                  
 SETTING AHH1           =        60.96223827                                  
 SETTING AHH2           =       180.23570226                                  
 SETTING AHH3           =       298.80205947                                  
 SETTING BASIS          =    CC-PVTZ-F12


 Recomputing integrals since basis changed


 Using spherical harmonics

 Library entry C      S cc-pVTZ-F12          selected for orbital group  1
 Library entry C      P cc-pVTZ-F12          selected for orbital group  1
 Library entry C      D cc-pVTZ-F12          selected for orbital group  1
 Library entry C      F cc-pVTZ-F12          selected for orbital group  1
 Library entry O      S cc-pVTZ-F12          selected for orbital group  2
 Library entry O      P cc-pVTZ-F12          selected for orbital group  2
 Library entry O      D cc-pVTZ-F12          selected for orbital group  2
 Library entry O      F cc-pVTZ-F12          selected for orbital group  2
 Library entry H      S cc-pVTZ-F12          selected for orbital group  3
 Library entry H      P cc-pVTZ-F12          selected for orbital group  3
 Library entry H      D cc-pVTZ-F12          selected for orbital group  3


 PROGRAM * SEWARD (Integral evaluation for generally contracted gaussian basis sets)     Author: Roland Lindh, 1990

 Geometry written to block  1 of record 700

 Orientation using atomic masses  
 Molecule type: Asymmetric top
 Rotational constants:      23.9469147     24.8230025    128.7574226 GHz  (calculated with average atomic masses)

 Point group  C1  



 ATOMIC COORDINATES

 NR  ATOM    CHARGE       X              Y              Z

   1  C       6.00    0.000741831    0.023544416   -1.376644880
   2  O       8.00    0.000894154   -0.121755679    1.304299542
   3  H       1.00   -0.014173643    1.569425326    1.961359983
   4  H1      1.00    1.668936690    1.008721697   -2.085668868
   5  H2      1.00    0.009797615   -1.898504783   -2.087242415
   6  H3      1.00   -1.687593836    0.972465855   -2.087443132

 Bond lengths in Bohr (Angstrom)

 1-2  2.684878979  1-4  2.063047110  1-5  2.049220337  1-6  2.063047110  2-3  1.814400356
     ( 1.420776770)     ( 1.091717516)     ( 1.084400703)     ( 1.091717516)     ( 0.960139320)

 Bond angles

  1-2-3  108.12930637   2-1-4  111.65221523   2-1-5  107.18733878   2-1-6  111.65221523

  4-1-5  108.97473698   4-1-6  108.88575130   5-1-6  108.39459424

 NUCLEAR CHARGE:                   18
 NUMBER OF PRIMITIVE AOS:         228
 NUMBER OF SYMMETRY AOS:          206
 NUMBER OF CONTRACTIONS:          178   (  178A   )
 NUMBER OF INNER CORE ORBITALS:     0   (    0A   )
 NUMBER OF OUTER CORE ORBITALS:     2   (    2A   )
 NUMBER OF VALENCE ORBITALS:       12   (   12A   )


 NUCLEAR REPULSION ENERGY   40.34586348

 Eigenvalues of metric

         1 0.879E-04 0.183E-03 0.309E-03 0.323E-03 0.460E-03 0.493E-03 0.560E-03 0.570E-03


 Contracted 2-electron integrals neglected if value below      1.0D-11
 AO integral compression algorithm  1   Integral accuracy      1.0D-11

     603.718 MB (compressed) written to integral file ( 50.6%)


 NUMBER OF SORTED TWO-ELECTRON INTEGRALS:  126906346.     BUFFER LENGTH:  32768
 NUMBER OF SEGMENTS:   8  SEGMENT LENGTH:   15999503      RECORD LENGTH: 524288

 Memory used in sort:      16.56 MW

 SORT1 READ   149034713. AND WROTE   124697574. INTEGRALS IN    360 RECORDS. CPU TIME:     2.39 SEC, REAL TIME:    25.71 SEC
 SORT2 READ   124697574. AND WROTE   126906346. INTEGRALS IN   2303 RECORDS. CPU TIME:     1.91 SEC, REAL TIME:    41.62 SEC

 FILE SIZES:   FILE 1:   634.9 MBYTE,  FILE 4:  1510.0 MBYTE,   TOTAL:   2144.9 MBYTE

 OPERATOR DM      FOR CENTER  0  COORDINATES:    0.000000    0.000000    0.000000


 **********************************************************************************************************************************
 DATASETS  * FILE   NREC   LENGTH (MB)   RECORD NAMES
              1      19      557.71       500      610      700      900      950      970     1000      129      960     1100   
                                          VAR    BASINP    GEOM    SYMINP    ZMAT    AOBASIS   BASIS     P2S    ABASIS      S 
                                         1400     1410     1200     1210     1080     1600     1650     1300     1700   
                                           T        V       H0       H01     AOSYM     SMH    MOLCAS    ERIS     OPER   

 PROGRAMS   *        TOTAL       INT
 CPU TIMES  *         9.17      9.05
 REAL TIME  *        83.09 SEC
 DISK USED  *         2.15 GB
 **********************************************************************************************************************************


 PROGRAM * RHF-SCF (CLOSED SHELL)       Authors: W. Meyer, H.-J. Werner


 NUMBER OF ELECTRONS:       9+    9-    SPACE SYMMETRY=1    SPIN SYMMETRY: Singlet 
 CONVERGENCE THRESHOLDS:    1.00E-05 (Density)    1.00E-07 (Energy)
 MAX. NUMBER OF ITERATIONS:       60
 INTERPOLATION TYPE:            DIIS
 INTERPOLATION STEPS:              2 (START)      1 (STEP)
 LEVEL SHIFTS:                  0.00 (CLOSED)  0.00 (OPEN) 



 Orbital guess generated from atomic densities. Full valence occupancy:   14

 Molecular orbital dump at record        2100.2

 Initial occupancy:   9

 ITERATION    DDIFF          GRAD             ENERGY        2-EL.EN.            DIPOLE MOMENTS         DIIS   ORB.
    1      0.000D+00      0.000D+00      -115.06236700    164.484331   -0.00901    0.90607   -0.47837    0    start
    2      0.000D+00      0.506D-02      -115.09072683    161.902032   -0.00497    0.49742   -0.30380    1    diag
    3      0.480D-02      0.277D-02      -115.09821475    163.165595   -0.00584    0.60075   -0.39713    2    diag
    4      0.163D-02      0.546D-03      -115.09874737    162.988936   -0.00576    0.59558   -0.39257    3    diag
    5      0.436D-03      0.110D-03      -115.09878182    163.000411   -0.00570    0.59156   -0.39740    4    diag
    6      0.122D-03      0.205D-04      -115.09878338    162.998204   -0.00569    0.59169   -0.39818    5    diag
    7      0.350D-04      0.435D-05      -115.09878345    162.997809   -0.00569    0.59151   -0.39846    6    diag
    8      0.877D-05      0.114D-05      -115.09878346    162.998161   -0.00569    0.59150   -0.39847    0    orth

 Final occupancy:   9

 !RHF STATE  1.1 Energy              -115.098783455130
 Nuclear energy                        40.34586348
 One-electron energy                 -236.94372750
 Two-electron energy                   81.49908056
 Virial quotient                       -1.00101517
 !RHF STATE  1.1 Dipole moment         -0.00569057     0.59150372    -0.39847204
 Dipole moment /Debye                  -0.01446303     1.50335403    -1.01274857

 Orbital energies:

         1.1          2.1          3.1          4.1          5.1          6.1          7.1          8.1          9.1         10.1
    -20.556339   -11.269799    -1.356938    -0.926344    -0.691234    -0.620896    -0.594437    -0.505020    -0.451776     0.054569

        11.1
      0.065024


 HOMO      9.1    -0.451776 =     -12.2935eV
 LUMO     10.1     0.054569 =       1.4849eV
 LUMO-HOMO         0.506345 =      13.7784eV


 **********************************************************************************************************************************
 DATASETS  * FILE   NREC   LENGTH (MB)   RECORD NAMES
              1      19      557.71       500      610      700      900      950      970     1000      129      960     1100   
                                          VAR    BASINP    GEOM    SYMINP    ZMAT    AOBASIS   BASIS     P2S    ABASIS      S 
                                         1400     1410     1200     1210     1080     1600     1650     1300     1700   
                                           T        V       H0       H01     AOSYM     SMH    MOLCAS    ERIS     OPER   

              2       4        3.48       700     1000      520     2100   
                                         GEOM     BASIS   MCVARS     RHF  

 PROGRAMS   *        TOTAL    HF-SCF       INT
 CPU TIMES  *        17.26      8.09      9.05
 REAL TIME  *        95.38 SEC
 DISK USED  *         2.15 GB
 **********************************************************************************************************************************


 PROGRAM * MP2 (Closed-shell)     Authors: C. Hampel, H.-J. Werner, 1991, M. Deegan, P.J. Knowles, 1992

                                   MP2-F12 implementation by H.-J. Werner, 2007

                   Density fitting integral evaluation by F.R. Manby, 2003,2007, G. Knizia, 2010


 Basis set AUG-CC-PVTZ/JKFIT generated.  Number of basis functions:   392 
 Basis set CC-PVTZ-F12/OPTRI generated.  Number of basis functions:   314 
 Basis set AUG-CC-PVTZ/MP2FIT generated. Number of basis functions:   396 

 Convergence thresholds:  THRVAR = 1.00D-08  THRDEN = 1.00D-06

 Number of core orbitals:           2 (   2 )
 Number of closed-shell orbitals:   7 (   7 )
 Number of external orbitals:     169 ( 169 )

 Molecular orbitals read from record     2100.2  Type=RHF/CANONICAL (state 1.1)

 MP2-F12 correlation treatment (H.-J. Werner, 2006)
 ==================================================

 Using MP2-F12 with ansatz 3C(FIX)

 Using projected zeroth-order Hamiltonian (+Z)

 FOCKRIB=T FOCKRIC=T FOCKRIP=T CABSP=T CABSA=T CABSK=T CABSF=T GBC=F EBC=F DMAT=T NOFIK=T NOPAO=1 SOLVE=-1  USEPAO=0
 EXCH_A= T EXCH_B= F EXCH_C= F EXCH_P= F

 Geminal basis:    OPTFULL  GEM_TYPE=SLATER  BETA=1.0  NGEM=6

 Optimizing Gaussian exponents for each gem_beta

 Geminal optimization for beta= 1.0000
 Weight function:   m=0, omega= 1.4646

 Augmented Hessian optimization of geminal fit. Trust ratio= 0.40000
 Convergence reached after   2 iterations. Final gradient= 8.66D-16, Step= 4.23D-06, Delta= 1.28D-09

 Alpha:                 0.19532     0.81920     2.85917     9.50073    35.69989   197.79328
 Coeff:                 0.27070     0.30552     0.18297     0.10986     0.06810     0.04224


 All pairs explicitly correlated. Number of r12-pairs:           28

 Excluding core orbitals from MO domains

 AO(A)-basis ORBITAL           loaded. Number of functions:     178
 RI(R)-basis CC-PVTZ-F12/OPTRI loaded. Number of functions:     314
 DF-basis AUG-CC-PVTZ/JKFIT    loaded. Number of functions:     392

 Screening thresholds:   THRAO=  1.00D-10  THRMO=  1.00D-09  THRPROD=  1.00D-09
                         THRSW=  1.00D-05  THROV=  1.00D-12  THRAOF12= 1.00D-08

 CPU time for Fock operators                      1.56 sec

 Construction of ABS:
 Smallest eigenvalue of S          4.32E-04  (threshold= 1.00E-08)
 Ratio eigmin/eigmax               5.52E-05  (threshold= 1.00E-09)
 Smallest eigenvalue of S kept     4.32E-04  (threshold= 4.32E-04, 0 functions deleted, 314 kept)

 Construction of CABS:
 Smallest eigenvalue of S          7.25E-07  (threshold= 1.00E-08)
 Ratio eigmin/eigmax               7.25E-07  (threshold= 1.00E-09)
 Smallest eigenvalue of S kept     7.25E-07  (threshold= 7.25E-07, 0 functions deleted, 314 kept)

 CPU time for CABS singles                        0.04 sec

 CABS-singles contribution of  -0.00135368 patched into reference energy.
 New reference energy        -115.10013713

 AO(A)-basis ORBITAL           loaded. Number of functions:     178
 RI(R)-basis CC-PVTZ-F12/OPTRI loaded. Number of functions:     314
 DF-basis AUG-CC-PVTZ/MP2FIT   loaded. Number of functions:     396

 Screening thresholds:   THRAO=  1.00D-10  THRMO=  1.00D-09  THRPROD=  1.00D-09
                         THRSW=  1.00D-05  THROV=  1.00D-12  THRAOF12= 1.00D-08

 CPU time for 3-index integral evaluation         3.47 sec
 CPU time for first  half transformation          0.29 sec ( 8514.0 MFLOP/sec)
 CPU time for second half transformation          0.01 sec ( 6217.0 MFLOP/sec)
 CPU time for sorting                             0.01 sec
 CPU time for fitting                             0.04 sec (28485.6 MFLOP/sec)
 CPU time for tilde quantities                    0.03 sec (50348.4 MFLOP/sec)
 CPU time for assembly                            0.21 sec (58826.6 MFLOP/sec)
 CPU time for tranop_f12                          0.27 sec (58741.6 MFLOP/sec)
 CPU time for f12 integrals (total)               4.78 sec, Elapsed time:      6.00 sec
 CPU time for f12 matrices (total)                0.11 sec, Elapsed time:      0.22 sec

 Diagonal F12 approximation with fixed coefficients:  TSING= 0.500,  TTRIP= 0.250 (scaled by -1/beta)

 DF-MP2-F12 energy corrections:
 ==============================
 Approx.                                    Singlet             Triplet             Total
 DF-MP2-F12/3*C(DX,FIX)                -0.038287445172     -0.004212598081     -0.042500043253
 DF-MP2-F12/3*C(FIX)                   -0.036088548013     -0.003930853817     -0.040019401830
 DF-MP2-F12/3C(FIX)                    -0.036031290499     -0.004065830779     -0.040097121278

 DF-MP2-F12 correlation energies:
 ================================
 Approx.                                    Singlet             Triplet             Ecorr            Total Energy
 DF-MP2                                -0.291094416478     -0.152359587740     -0.443454004218   -115.543591137566
 DF-MP2-F12/3*C(DX,FIX)                -0.329381861650     -0.156572185821     -0.485954047471   -115.586091180819
 DF-MP2-F12/3*C(FIX)                   -0.327182964491     -0.156290441557     -0.483473406048   -115.583610539396
 DF-MP2-F12/3C(FIX)                    -0.327125706977     -0.156425418518     -0.483551125496   -115.583688258844

 SCS-DF-MP2 energies (F_SING= 1.20000  F_TRIP= 0.62222  F_PARALLEL= 0.33333):
 ============================================================================
 SCS-DF-MP2                            -0.444114821034   -115.544251954382
 SCS-DF-MP2-F12/3*C(DX,FIX)            -0.492680927380   -115.592818060728
 SCS-DF-MP2-F12/3*C(FIX)               -0.489866943247   -115.590004076595
 SCS-DF-MP2-F12/3C(FIX)                -0.489882219895   -115.590019353244
 Symmetry transformation completed.

 Number of N-1 electron functions:               7
 Number of N-2 electron functions:              28
 Number of singly external CSFs:              1183
 Number of doubly external CSFs:            700336
 Total number of CSFs:                      701520

 Length of J-op  integral file:             104.98 MB
 Length of K-op  integral file:             138.67 MB

 Integral transformation finished. Total CPU:   1.38 sec, npass=  1  Memory used:   2.18 MW

 ITER.      SQ.NORM     CORR.ENERGY   TOTAL ENERGY   ENERGY CHANGE     VAR   MIC
   1      1.00000000    -0.44352040  -115.54365754    -0.44352040  0.00D+00   0
   2      1.11473308    -0.44352040  -115.54365754    -0.00000000  0.17D-15   0

 Solving MP2-F12 equations

   1      1.11469676    -0.48285939  -115.58299652    -0.03933898 -0.37D-04   0
   2      1.11469676    -0.48361612  -115.58375326    -0.00075674  0.65D-18   0
   3      1.11469676    -0.48361612  -115.58375326     0.00000000 -0.22D-19   0

 CPU TIME FOR ITERATIVE MP2:    0.12 SEC


 MP2-F12 energy corrections:
 ===========================
 Approx.                                    Singlet             Triplet             Total
 MP2-F12/3*C(DX,FIX)                   -0.038287445172     -0.004212598081     -0.042500043253
 MP2-F12/3*C(FIX)                      -0.036088548013     -0.003930853817     -0.040019401830
 MP2-F12/3C(FIX)                       -0.036028591178     -0.004067126326     -0.040095717504

 MP2-F12 correlation energies:
 =============================
 Approx.                                    Singlet             Triplet             Ecorr            Total Energy
 MP2                                   -0.291277730422     -0.152242674218     -0.443520404640   -115.543657537988
 MP2-F12/3*C(DX,FIX)                   -0.329565175594     -0.156455272299     -0.486020447893   -115.586157581242
 MP2-F12/3*C(FIX)                      -0.327366278435     -0.156173528035     -0.483539806470   -115.583676939819
 MP2-F12/3C(FIX)                       -0.327306321600     -0.156309800544     -0.483616122144   -115.583753255493

 SCS-MP2 energies (F_SING= 1.20000  F_TRIP= 0.62222  F_PARALLEL= 0.33333):
 =========================================================================
 SCS-MP2                               -0.444262051575   -115.544399184924
 SCS-MP2-F12/3*C(DX,FIX)               -0.492828157921   -115.592965291270
 SCS-MP2-F12/3*C(FIX)                  -0.490014173788   -115.590151307137
 SCS-MP2-F12/3C(FIX)                   -0.490027017370   -115.590164150718


  Reference energy                   -115.098783455130
  F12 singles correction               -0.001353678219

 F12 singles corrections added to reference energy

  New reference energy               -115.100137133349

  F12/3C(F) singlet correction         -0.036028591178
  F12/3C(F) triplet correction         -0.004067126326
  F12/3C(F) total correction           -0.040095717504
  MP2-F12/3C(F) singlet pair energy    -0.327306321600
  MP2-F12/3C(F) triplet pair energy    -0.156309800544
  MP2-F12/3C(F) correlation energy     -0.483616122144

 !MP2-F12/3C(F) total energy         -115.583753255493


 **********************************************************************************************************************************
 DATASETS  * FILE   NREC   LENGTH (MB)   RECORD NAMES
              1      20      568.89       500      610      700      900      950      970     1000      129      960     1100   
                                          VAR    BASINP    GEOM    SYMINP    ZMAT    AOBASIS   BASIS     P2S    ABASIS      S 
                                         1400     1410     1200     1210     1080     1600     1650     1300     1700     1380   
                                           T        V       H0       H01     AOSYM     SMH    MOLCAS    ERIS     OPER     JKOP   

              2       7        4.13       700     1000      520     2100     7360     7350     7000   
                                         GEOM     BASIS   MCVARS     RHF    F12ABS    EF12   

 PROGRAMS   *        TOTAL   MP2-F12    HF-SCF       INT
 CPU TIMES  *        25.49      8.23      8.09      9.05
 REAL TIME  *       106.38 SEC
 DISK USED  *         2.15 GB
 **********************************************************************************************************************************


 PROGRAM * CCSD (Closed-shell coupled cluster)     Authors: C. Hampel, H.-J. Werner, 1991, M. Deegan, P.J. Knowles, 1992

                                  CCSD-F12 implementation by  H.-J. Werner, 2007

                   Density fitting integral evaluation by F.R. Manby, 2003,2007, G. Knizia, 2010



 Convergence thresholds:  THRVAR = 1.00D-08  THRDEN = 1.00D-06

 CCSD(T)     terms to be evaluated (factor= 1.000)


 Number of core orbitals:           2 (   2 )
 Number of closed-shell orbitals:   7 (   7 )
 Number of external orbitals:     169 ( 169 )

 Molecular orbitals read from record     2100.2  Type=RHF/CANONICAL (state 1.1)

 MP2-F12 correlation treatment (H.-J. Werner, 2006)
 ==================================================

 Using MP2-F12 with ansatz 3C(FIX)

 Using projected zeroth-order Hamiltonian (+Z)

 FOCKRIB=T FOCKRIC=T FOCKRIP=T CABSP=T CABSA=T CABSK=T CABSF=T GBC=F EBC=F DMAT=T NOFIK=T NOPAO=1 SOLVE=-1  USEPAO=0
 EXCH_A= T EXCH_B= F EXCH_C= F EXCH_P= F

 Geminal basis:    OPTFULL  GEM_TYPE=SLATER  BETA=1.0  NGEM=6

 Optimizing Gaussian exponents for each gem_beta

 Geminal optimization for beta= 1.0000
 Weight function:   m=0, omega= 1.4646

 Augmented Hessian optimization of geminal fit. Trust ratio= 0.40000
 Convergence reached after   2 iterations. Final gradient= 8.66D-16, Step= 4.23D-06, Delta= 1.28D-09

 Alpha:                 0.19532     0.81920     2.85917     9.50073    35.69989   197.79328
 Coeff:                 0.27070     0.30552     0.18297     0.10986     0.06810     0.04224


 All pairs explicitly correlated. Number of r12-pairs:           28

 Excluding core orbitals from MO domains

 AO(A)-basis ORBITAL           loaded. Number of functions:     178
 RI(R)-basis CC-PVTZ-F12/OPTRI loaded. Number of functions:     314
 DF-basis AUG-CC-PVTZ/JKFIT    loaded. Number of functions:     392

 Screening thresholds:   THRAO=  1.00D-10  THRMO=  1.00D-09  THRPROD=  1.00D-09
                         THRSW=  1.00D-05  THROV=  1.00D-12  THRAOF12= 1.00D-08

 CPU time for Fock operators                      1.54 sec

 Construction of ABS:
 Smallest eigenvalue of S          4.32E-04  (threshold= 1.00E-08)
 Ratio eigmin/eigmax               5.52E-05  (threshold= 1.00E-09)
 Smallest eigenvalue of S kept     4.32E-04  (threshold= 4.32E-04, 0 functions deleted, 314 kept)

 Construction of CABS:
 Smallest eigenvalue of S          7.25E-07  (threshold= 1.00E-08)
 Ratio eigmin/eigmax               7.25E-07  (threshold= 1.00E-09)
 Smallest eigenvalue of S kept     7.25E-07  (threshold= 7.25E-07, 0 functions deleted, 314 kept)

 CPU time for CABS singles                        0.05 sec

 CABS-singles contribution of  -0.00135368 patched into reference energy.
 New reference energy        -115.10013713

 AO(A)-basis ORBITAL           loaded. Number of functions:     178
 RI(R)-basis CC-PVTZ-F12/OPTRI loaded. Number of functions:     314
 DF-basis AUG-CC-PVTZ/MP2FIT   loaded. Number of functions:     396

 Screening thresholds:   THRAO=  1.00D-10  THRMO=  1.00D-09  THRPROD=  1.00D-09
                         THRSW=  1.00D-05  THROV=  1.00D-12  THRAOF12= 1.00D-08

 CPU time for 3-index integral evaluation         3.51 sec
 CPU time for first  half transformation          0.23 sec (10735.0 MFLOP/sec)
 CPU time for second half transformation          0.01 sec ( 6217.0 MFLOP/sec)
 CPU time for fitting                             0.03 sec (37980.8 MFLOP/sec)
 CPU time for tilde quantities                    0.04 sec (37761.3 MFLOP/sec)
 CPU time for assembly                            0.21 sec (58826.6 MFLOP/sec)
 CPU time for tranop_f12                          0.27 sec (58741.6 MFLOP/sec)
 CPU time for f12 integrals (total)               4.74 sec, Elapsed time:      5.39 sec
 CPU time for f12 matrices (total)                0.11 sec, Elapsed time:      0.15 sec

 Diagonal F12 approximation with fixed coefficients:  TSING= 0.500,  TTRIP= 0.250 (scaled by -1/beta)

 DF-MP2-F12 energy corrections:
 ==============================
 Approx.                                    Singlet             Triplet             Total
 DF-MP2-F12/3*C(DX,FIX)                -0.038287445172     -0.004212598081     -0.042500043253
 DF-MP2-F12/3*C(FIX)                   -0.036088548013     -0.003930853817     -0.040019401830
 DF-MP2-F12/3C(FIX)                    -0.036031290499     -0.004065830779     -0.040097121278

 DF-MP2-F12 correlation energies:
 ================================
 Approx.                                    Singlet             Triplet             Ecorr            Total Energy
 DF-MP2                                -0.291094416478     -0.152359587740     -0.443454004218   -115.543591137566
 DF-MP2-F12/3*C(DX,FIX)                -0.329381861650     -0.156572185821     -0.485954047471   -115.586091180819
 DF-MP2-F12/3*C(FIX)                   -0.327182964491     -0.156290441557     -0.483473406048   -115.583610539396
 DF-MP2-F12/3C(FIX)                    -0.327125706977     -0.156425418518     -0.483551125496   -115.583688258844

 SCS-DF-MP2 energies (F_SING= 1.20000  F_TRIP= 0.62222  F_PARALLEL= 0.33333):
 ============================================================================
 SCS-DF-MP2                            -0.444114821034   -115.544251954382
 SCS-DF-MP2-F12/3*C(DX,FIX)            -0.492680927380   -115.592818060728
 SCS-DF-MP2-F12/3*C(FIX)               -0.489866943247   -115.590004076595
 SCS-DF-MP2-F12/3C(FIX)                -0.489882219895   -115.590019353244
 Symmetry transformation completed.

 Number of N-1 electron functions:               7
 Number of N-2 electron functions:              28
 Number of singly external CSFs:              1183
 Number of doubly external CSFs:            700336
 Total number of CSFs:                      701520

 Length of J-op  integral file:             105.23 MB
 Length of K-op  integral file:             138.67 MB
 Length of 3-ext integral record:             0.00 MB

 Memory could be reduced to 48.01 Mwords without degradation in triples

 Integral transformation finished. Total CPU:   3.32 sec, npass=  1  Memory used:  24.86 MW

 Reference energy:                   -115.10013713

 Adding F12 terms to K(Cij), methodcc=6,  factor= 1.0

 ITER.      SQ.NORM     CORR.ENERGY   TOTAL ENERGY   ENERGY CHANGE        DEN1      VAR(S)    VAR(P)  DIIS     TIME  TIME/IT
   1      1.11762051    -0.45285402  -115.55299115    -0.00933362     0.00166813  0.15D-02  0.19D-02  1  1    13.06     6.15
   2      1.12503031    -0.45321575  -115.55335288    -0.00036173    -0.00904667  0.24D-04  0.23D-03  2  2    16.14     6.51
   3      1.12775982    -0.45339315  -115.55353028    -0.00017740    -0.00186507  0.15D-04  0.13D-04  3  3    19.13     6.02
   4      1.12870716    -0.45341102  -115.55354816    -0.00001788    -0.00060024  0.86D-06  0.12D-05  4  4    22.06     5.81
   5      1.12886276    -0.45341258  -115.55354971    -0.00000155    -0.00003793  0.23D-06  0.10D-06  5  5    24.98     5.35
   6      1.12890537    -0.45341022  -115.55354736     0.00000235    -0.00000423  0.36D-07  0.96D-08  6  6    27.90     5.18
   7      1.12891650    -0.45340935  -115.55354648     0.00000087    -0.00000299  0.40D-08  0.14D-08  6  1    30.82     5.11
   8      1.12891830    -0.45340941  -115.55354654    -0.00000006     0.00000034  0.68D-09  0.20D-09  6  3    33.74     5.07

 Norm of t1 vector:      0.05001416      S-energy:     0.00000011      T1 diagnostic:  0.00945179
                                                                       D1 diagnostic:  0.02004172

 Adding energy correction from Wij-K(Fij), methodcc=6  factor= 1.0

  CCSD correlation energy              -0.453409410699
  MP2-F12 correction (uncoupled)       -0.038545261164
  C*T doubles correction               -0.001165035227
  f12b correction                       0.007098760561


 Total CPU time for triples:     35.63 sec


 RESULTS
 =======

  Reference energy                   -115.098783455130
  F12 singles correction               -0.001353678219

 F12 singles corrections added to reference energy

  New reference energy               -115.100137133349

  F12a singlet correction              -0.035791768546
  F12a triplet correction              -0.003918527844
  F12a total correction                -0.039710296390

 F12a corrections for ansatz F12/3C(FIX) added to CCSD energy

  CCSD-F12a singlet pair energy        -0.351208329535
  CCSD-F12a triplet pair energy        -0.141911485414
  CCSD-F12a correlation energy         -0.493119707089

  Triples (T) contribution             -0.016014351380
  Total correlation energy             -0.509134058469

  CCSD-F12a total energy             -115.593256840438
  CCSD[T]-F12a energy                -115.609824358310
  CCSD-T-F12a energy                 -115.609027430004
 !CCSD(T)-F12a total energy          -115.609271191818

 F12b corrections for ansatz F12/3C(FIX) added to CCSD(T)-F12a energy

  CCSD-F12b singlet pair energy        -0.344571636070
  CCSD-F12b triplet pair energy        -0.141449418319
  CCSD-F12b correlation energy         -0.486020946528

  Triples (T) contribution             -0.016014351380
  Total correlation energy             -0.502035297908

  CCSD-F12b total energy             -115.586158079877
  CCSD[T]-F12b energy                -115.602725597749
  CCSD-T-F12b energy                 -115.601928669443
 !CCSD(T)-F12b total energy          -115.602172431257

 Timing summary (sec):

 STEP                 CPU(USER)    SYS     CPU(TOT)    WALL
 Transformation          3.36      1.17      4.53      7.83
 CCSD iterations        23.86      7.08     30.94     40.68
 Triples                35.63      1.08     36.71     37.51
 MP2-F12                 6.53      0.55      7.08      7.35
 F12b energy             2.36      0.37      2.73      3.99

 Program statistics:

 Available memory in ccsd:               499999646
 Min. memory needed in ccsd:               2228017
 Max. memory used in ccsd:                 2807120
 Max. memory used in cckext:               2027429 ( 9 integral passes)



 **********************************************************************************************************************************
 DATASETS  * FILE   NREC   LENGTH (MB)   RECORD NAMES
              1      20      704.84       500      610      700      900      950      970     1000      129      960     1100   
                                          VAR    BASINP    GEOM    SYMINP    ZMAT    AOBASIS   BASIS     P2S    ABASIS      S 
                                         1400     1410     1200     1210     1080     1600     1650     1300     1700     1380   
                                           T        V       H0       H01     AOSYM     SMH    MOLCAS    ERIS     OPER     JKOP   

              2       7        4.13       700     1000      520     2100     7360     7350     7000   
                                         GEOM     BASIS   MCVARS     RHF    F12ABS    EF12   

 PROGRAMS   *        TOTAL   CCSD(T)   MP2-F12    HF-SCF       INT
 CPU TIMES  *        97.27     71.77      8.23      8.09      9.05
 REAL TIME  *       203.94 SEC
 DISK USED  *         2.15 GB
 **********************************************************************************************************************************
 SETTING XXX            =    "MMM"
 SETTING POINT          =       105.00000000                                  

 *** ### CH3OH


 XXX       RCO          ROH          RCH1         RCH2         RCH3           ACOH           AOCH1          AOCH2          AOCH3         AHH1           AHH2           AHH3            ENERGY        POINT
 "MMM"   1.42077677   0.96013932   1.09171752   1.08440070   1.09171752   108.12930637   111.65221523   107.18733878   111.65221523   60.96223827   180.23570226   298.80205947   -115.60927119   105.0000
                                                  

 CCSD(T)-F12/cc-pVTZ-F12 energy=   -115.602172431257

     CCSD(T)-F12         MP2-F12          HF-SCF
   -115.60217243   -115.58375326   -115.09878346
 **********************************************************************************************************************************
 Molpro calculation terminated
