
 Primary working directories    : /tmpdir/job/2955667.undefined/molpro.UOMWpQZIHQ
 Secondary working directories  : /tmpdir/job/2955667.undefined/molpro.UOMWpQZIHQ
 Wavefunction directory         : /home/zcaposm/wfu/
 Main file repository           : /tmpdir/job/2955667.undefined/molpro.UOMWpQZIHQ/

 id        : uclcc

 Nodes                         nprocs
 node-d00a-123.myriad.ucl.ac.uk    1

 Using customized tuning parameters: mindgm=1; mindgv=20; mindgc=4; mindgr=1; noblas=0; minvec=7
 default implementation of scratch files=df  


 Variables initialized (945), CPU time= 0.01 sec
 ***,Methanol Ground State Energy with CCSD(T)-F12 and cc-pVTZ-F12
 memory,500,m;
 
 geometry={angstrom
 c
 o , 1, rco
 h , 2, roh, 1, acoh
 h1, 1, rch1, 2, aoch1  3  ahh1
 h2, 1, rch2, 2, aoch2, 3, ahh2
 h3, 1, rch3, 2, aoch3, 3, ahh3
 }
 
                                                ! Specify the initial values of the internal coordinates (in Angstroms and degrees)
 
 rco= 1.42077677
 roh= 0.96013932
 rch1= 1.091717515605
 rch2= 1.08440070258
 rch3= 1.091717515605
 acoh= 108.12930637
 aoch1= 111.6522152299
 aoch2= 107.18733878260001
 aoch3= 111.6522152299
 ahh1=61.433642790000015
 ahh2=180.6123724356958
 ahh3=297.95398477430416
 
                                                                                 ! Use the cc-pVTZ-F12 basis set
 basis=cc-pVTZ-F12
 
 hf
 
                                                                                 ! Use explicitly correlated F12 methods
                                                                            ! First, MP2-F12 (useful for initial electronic energy)
 {mp2-f12}
 
                                                                        ! If desired, perform CCSD(T)-F12 for more accurate results
 {ccsd(t)-f12}
 
                                                                                 ! Output the energy
 xxx = "mmm"
 point = 97
 text ### CH3OH
 table,xxx,rco,roh,rch1,rch2,rch3,acoh,aoch1,aoch2,aoch3,ahh1,ahh2,ahh3,energy,point
 DIGITS, 0, 8, 8, 8, 8, 8, 8, 8, 8, 8,  8,  8,  8, 8, 4
 save,CH3OH_MEP_MP2_97.dat,new
 
 Commands  initialized (802), CPU time= 0.01 sec, 659 directives.
 Default parameters read. Elapsed time= 0.12 sec

 Checking input...
 Passed
1


                                         ***  PROGRAM SYSTEM MOLPRO  ***
                                       Copyright, TTI GmbH Stuttgart, 2015
                                    Version 2020.1 linked Oct  6 2020 12:04:11


 **********************************************************************************************************************************
 LABEL *   Methanol Ground State Energy with CCSD(T)-F12 and cc-pVTZ-F12                 
  64 bit serial version                                                                  DATE: 08-Oct-24          TIME: 17:30:42  
 **********************************************************************************************************************************

 SHA1:             8c27446f6450a7499e38f603e13c65f775101d37
 **********************************************************************************************************************************

 Memory per process:       500 MW
 Total memory per node:    500 MW

 GA preallocation disabled
 GA check disabled

 Variable memory set to 500.0 MW

 SETTING RCO            =         1.42077677                                  
 SETTING ROH            =         0.96013932                                  
 SETTING RCH1           =         1.09171752                                  
 SETTING RCH2           =         1.08440070                                  
 SETTING RCH3           =         1.09171752                                  
 SETTING ACOH           =       108.12930637                                  
 SETTING AOCH1          =       111.65221523                                  
 SETTING AOCH2          =       107.18733878                                  
 SETTING AOCH3          =       111.65221523                                  
 SETTING AHH1           =        61.43364279                                  
 SETTING AHH2           =       180.61237244                                  
 SETTING AHH3           =       297.95398477                                  
 SETTING BASIS          =    CC-PVTZ-F12


 Recomputing integrals since basis changed


 Using spherical harmonics

 Library entry C      S cc-pVTZ-F12          selected for orbital group  1
 Library entry C      P cc-pVTZ-F12          selected for orbital group  1
 Library entry C      D cc-pVTZ-F12          selected for orbital group  1
 Library entry C      F cc-pVTZ-F12          selected for orbital group  1
 Library entry O      S cc-pVTZ-F12          selected for orbital group  2
 Library entry O      P cc-pVTZ-F12          selected for orbital group  2
 Library entry O      D cc-pVTZ-F12          selected for orbital group  2
 Library entry O      F cc-pVTZ-F12          selected for orbital group  2
 Library entry H      S cc-pVTZ-F12          selected for orbital group  3
 Library entry H      P cc-pVTZ-F12          selected for orbital group  3
 Library entry H      D cc-pVTZ-F12          selected for orbital group  3


 PROGRAM * SEWARD (Integral evaluation for generally contracted gaussian basis sets)     Author: Roland Lindh, 1990

 Geometry written to block  1 of record 700

 Orientation using atomic masses  
 Molecule type: Asymmetric top
 Rotational constants:      23.9681343     24.7958525    128.8040449 GHz  (calculated with average atomic masses)

 Point group  C1  



 ATOMIC COORDINATES

 NR  ATOM    CHARGE       X              Y              Z

   1  C       6.00    0.001802230    0.026660894   -1.376542796
   2  O       8.00    0.002528755   -0.122276995    1.304201897
   3  H       1.00   -0.039281456    1.567566389    1.963542399
   4  H1      1.00    1.662837328    1.025042184   -2.083904501
   5  H2      1.00    0.028360950   -1.894260876   -2.089745557
   6  H3      1.00   -1.713532736    0.924898274   -2.088553287

 Bond lengths in Bohr (Angstrom)

 1-2  2.684878979  1-4  2.063047110  1-5  2.049220337  1-6  2.063047110  2-3  1.814400356
     ( 1.420776770)     ( 1.091717516)     ( 1.084400703)     ( 1.091717516)     ( 0.960139320)

 Bond angles

  1-2-3  108.12930637   2-1-4  111.65221523   2-1-5  107.18733878   2-1-6  111.65221523

  4-1-5  108.89712717   4-1-6  109.90126358   5-1-6  107.38518369

 NUCLEAR CHARGE:                   18
 NUMBER OF PRIMITIVE AOS:         228
 NUMBER OF SYMMETRY AOS:          206
 NUMBER OF CONTRACTIONS:          178   (  178A   )
 NUMBER OF INNER CORE ORBITALS:     0   (    0A   )
 NUMBER OF OUTER CORE ORBITALS:     2   (    2A   )
 NUMBER OF VALENCE ORBITALS:       12   (   12A   )


 NUCLEAR REPULSION ENERGY   40.34530209

 Eigenvalues of metric

         1 0.880E-04 0.183E-03 0.310E-03 0.322E-03 0.460E-03 0.493E-03 0.560E-03 0.570E-03


 Contracted 2-electron integrals neglected if value below      1.0D-11
 AO integral compression algorithm  1   Integral accuracy      1.0D-11

     611.582 MB (compressed) written to integral file ( 51.3%)


 NUMBER OF SORTED TWO-ELECTRON INTEGRALS:  126906346.     BUFFER LENGTH:  32768
 NUMBER OF SEGMENTS:   8  SEGMENT LENGTH:   15999503      RECORD LENGTH: 524288

 Memory used in sort:      16.56 MW

 SORT1 READ   149034713. AND WROTE   124793829. INTEGRALS IN    360 RECORDS. CPU TIME:     2.59 SEC, REAL TIME:    28.72 SEC
 SORT2 READ   124793829. AND WROTE   126906346. INTEGRALS IN   2333 RECORDS. CPU TIME:     1.90 SEC, REAL TIME:    44.34 SEC

 FILE SIZES:   FILE 1:   642.8 MBYTE,  FILE 4:  1510.0 MBYTE,   TOTAL:   2152.8 MBYTE

 OPERATOR DM      FOR CENTER  0  COORDINATES:    0.000000    0.000000    0.000000


 **********************************************************************************************************************************
 DATASETS  * FILE   NREC   LENGTH (MB)   RECORD NAMES
              1      19      564.39       500      610      700      900      950      970     1000      129      960     1100   
                                          VAR    BASINP    GEOM    SYMINP    ZMAT    AOBASIS   BASIS     P2S    ABASIS      S 
                                         1400     1410     1200     1210     1080     1600     1650     1300     1700   
                                           T        V       H0       H01     AOSYM     SMH    MOLCAS    ERIS     OPER   

 PROGRAMS   *        TOTAL       INT
 CPU TIMES  *         9.20      9.09
 REAL TIME  *        88.44 SEC
 DISK USED  *         2.15 GB
 **********************************************************************************************************************************


 PROGRAM * RHF-SCF (CLOSED SHELL)       Authors: W. Meyer, H.-J. Werner


 NUMBER OF ELECTRONS:       9+    9-    SPACE SYMMETRY=1    SPIN SYMMETRY: Singlet 
 CONVERGENCE THRESHOLDS:    1.00E-05 (Density)    1.00E-07 (Energy)
 MAX. NUMBER OF ITERATIONS:       60
 INTERPOLATION TYPE:            DIIS
 INTERPOLATION STEPS:              2 (START)      1 (STEP)
 LEVEL SHIFTS:                  0.00 (CLOSED)  0.00 (OPEN) 



 Orbital guess generated from atomic densities. Full valence occupancy:   14

 Molecular orbital dump at record        2100.2

 Initial occupancy:   9

 ITERATION    DDIFF          GRAD             ENERGY        2-EL.EN.            DIPOLE MOMENTS         DIIS   ORB.
    1      0.000D+00      0.000D+00      -115.06233564    164.484265   -0.02474    0.90227   -0.47764    0    start
    2      0.000D+00      0.506D-02      -115.09067957    161.902610   -0.01363    0.49552   -0.30355    1    diag
    3      0.480D-02      0.277D-02      -115.09816332    163.165347   -0.01606    0.59885   -0.39668    2    diag
    4      0.163D-02      0.546D-03      -115.09869548    162.988871   -0.01583    0.59380   -0.39212    3    diag
    5      0.436D-03      0.110D-03      -115.09872986    163.000339   -0.01568    0.58986   -0.39694    4    diag
    6      0.121D-03      0.204D-04      -115.09873142    162.998104   -0.01567    0.59001   -0.39772    5    diag
    7      0.349D-04      0.434D-05      -115.09873149    162.997730   -0.01566    0.58983   -0.39800    6    diag
    8      0.877D-05      0.113D-05      -115.09873149    162.998070   -0.01566    0.58983   -0.39801    0    orth

 Final occupancy:   9

 !RHF STATE  1.1 Energy              -115.098731491605
 Nuclear energy                        40.34530209
 One-electron energy                 -236.94306874
 Two-electron energy                   81.49903516
 Virial quotient                       -1.00101643
 !RHF STATE  1.1 Dipole moment         -0.01565872     0.58982696    -0.39801025
 Dipole moment /Debye                  -0.03979788     1.49909241    -1.01157490

 Orbital energies:

         1.1          2.1          3.1          4.1          5.1          6.1          7.1          8.1          9.1         10.1
    -20.556347   -11.269725    -1.356915    -0.926401    -0.690445    -0.622186    -0.594297    -0.503713    -0.452469     0.054718

        11.1
      0.064995


 HOMO      9.1    -0.452469 =     -12.3123eV
 LUMO     10.1     0.054718 =       1.4890eV
 LUMO-HOMO         0.507188 =      13.8013eV


 **********************************************************************************************************************************
 DATASETS  * FILE   NREC   LENGTH (MB)   RECORD NAMES
              1      19      564.39       500      610      700      900      950      970     1000      129      960     1100   
                                          VAR    BASINP    GEOM    SYMINP    ZMAT    AOBASIS   BASIS     P2S    ABASIS      S 
                                         1400     1410     1200     1210     1080     1600     1650     1300     1700   
                                           T        V       H0       H01     AOSYM     SMH    MOLCAS    ERIS     OPER   

              2       4        3.48       700     1000      520     2100   
                                         GEOM     BASIS   MCVARS     RHF  

 PROGRAMS   *        TOTAL    HF-SCF       INT
 CPU TIMES  *        17.18      7.98      9.09
 REAL TIME  *       102.14 SEC
 DISK USED  *         2.15 GB
 **********************************************************************************************************************************


 PROGRAM * MP2 (Closed-shell)     Authors: C. Hampel, H.-J. Werner, 1991, M. Deegan, P.J. Knowles, 1992

                                   MP2-F12 implementation by H.-J. Werner, 2007

                   Density fitting integral evaluation by F.R. Manby, 2003,2007, G. Knizia, 2010


 Basis set AUG-CC-PVTZ/JKFIT generated.  Number of basis functions:   392 
 Basis set CC-PVTZ-F12/OPTRI generated.  Number of basis functions:   314 
 Basis set AUG-CC-PVTZ/MP2FIT generated. Number of basis functions:   396 

 Convergence thresholds:  THRVAR = 1.00D-08  THRDEN = 1.00D-06

 Number of core orbitals:           2 (   2 )
 Number of closed-shell orbitals:   7 (   7 )
 Number of external orbitals:     169 ( 169 )

 Molecular orbitals read from record     2100.2  Type=RHF/CANONICAL (state 1.1)

 MP2-F12 correlation treatment (H.-J. Werner, 2006)
 ==================================================

 Using MP2-F12 with ansatz 3C(FIX)

 Using projected zeroth-order Hamiltonian (+Z)

 FOCKRIB=T FOCKRIC=T FOCKRIP=T CABSP=T CABSA=T CABSK=T CABSF=T GBC=F EBC=F DMAT=T NOFIK=T NOPAO=1 SOLVE=-1  USEPAO=0
 EXCH_A= T EXCH_B= F EXCH_C= F EXCH_P= F

 Geminal basis:    OPTFULL  GEM_TYPE=SLATER  BETA=1.0  NGEM=6

 Optimizing Gaussian exponents for each gem_beta

 Geminal optimization for beta= 1.0000
 Weight function:   m=0, omega= 1.4646

 Augmented Hessian optimization of geminal fit. Trust ratio= 0.40000
 Convergence reached after   2 iterations. Final gradient= 8.66D-16, Step= 4.23D-06, Delta= 1.28D-09

 Alpha:                 0.19532     0.81920     2.85917     9.50073    35.69989   197.79328
 Coeff:                 0.27070     0.30552     0.18297     0.10986     0.06810     0.04224


 All pairs explicitly correlated. Number of r12-pairs:           28

 Excluding core orbitals from MO domains

 AO(A)-basis ORBITAL           loaded. Number of functions:     178
 RI(R)-basis CC-PVTZ-F12/OPTRI loaded. Number of functions:     314
 DF-basis AUG-CC-PVTZ/JKFIT    loaded. Number of functions:     392

 Screening thresholds:   THRAO=  1.00D-10  THRMO=  1.00D-09  THRPROD=  1.00D-09
                         THRSW=  1.00D-05  THROV=  1.00D-12  THRAOF12= 1.00D-08

 CPU time for Fock operators                      1.50 sec

 Construction of ABS:
 Smallest eigenvalue of S          4.38E-04  (threshold= 1.00E-08)
 Ratio eigmin/eigmax               5.60E-05  (threshold= 1.00E-09)
 Smallest eigenvalue of S kept     4.38E-04  (threshold= 4.38E-04, 0 functions deleted, 314 kept)

 Construction of CABS:
 Smallest eigenvalue of S          7.26E-07  (threshold= 1.00E-08)
 Ratio eigmin/eigmax               7.26E-07  (threshold= 1.00E-09)
 Smallest eigenvalue of S kept     7.26E-07  (threshold= 7.26E-07, 0 functions deleted, 314 kept)

 CPU time for CABS singles                        0.04 sec

 CABS-singles contribution of  -0.00135358 patched into reference energy.
 New reference energy        -115.10008508

 AO(A)-basis ORBITAL           loaded. Number of functions:     178
 RI(R)-basis CC-PVTZ-F12/OPTRI loaded. Number of functions:     314
 DF-basis AUG-CC-PVTZ/MP2FIT   loaded. Number of functions:     396

 Screening thresholds:   THRAO=  1.00D-10  THRMO=  1.00D-09  THRPROD=  1.00D-09
                         THRSW=  1.00D-05  THROV=  1.00D-12  THRAOF12= 1.00D-08

 CPU time for 3-index integral evaluation         3.32 sec
 CPU time for first  half transformation          0.23 sec (10735.0 MFLOP/sec)
 CPU time for second half transformation          0.04 sec ( 1554.3 MFLOP/sec)
 CPU time for sorting                             0.01 sec
 CPU time for fitting                             0.01 sec (******* MFLOP/sec)
 CPU time for tilde quantities                    0.02 sec (75522.6 MFLOP/sec)
 CPU time for assembly                            0.20 sec (61768.0 MFLOP/sec)
 CPU time for tranop_f12                          0.30 sec (52867.4 MFLOP/sec)
 CPU time for f12 integrals (total)               4.52 sec, Elapsed time:      5.25 sec
 CPU time for f12 matrices (total)                0.10 sec, Elapsed time:      0.21 sec

 Diagonal F12 approximation with fixed coefficients:  TSING= 0.500,  TTRIP= 0.250 (scaled by -1/beta)

 DF-MP2-F12 energy corrections:
 ==============================
 Approx.                                    Singlet             Triplet             Total
 DF-MP2-F12/3*C(DX,FIX)                -0.038287506340     -0.004212725401     -0.042500231741
 DF-MP2-F12/3*C(FIX)                   -0.036088764225     -0.003930986369     -0.040019750594
 DF-MP2-F12/3C(FIX)                    -0.036031422717     -0.004065957013     -0.040097379729

 DF-MP2-F12 correlation energies:
 ================================
 Approx.                                    Singlet             Triplet             Ecorr            Total Energy
 DF-MP2                                -0.291098572362     -0.152370154882     -0.443468727244   -115.543553802309
 DF-MP2-F12/3*C(DX,FIX)                -0.329386078702     -0.156582880283     -0.485968958985   -115.586054034049
 DF-MP2-F12/3*C(FIX)                   -0.327187336586     -0.156301141251     -0.483488477838   -115.583573552902
 DF-MP2-F12/3C(FIX)                    -0.327129995079     -0.156436111895     -0.483566106973   -115.583651182038

 SCS-DF-MP2 energies (F_SING= 1.20000  F_TRIP= 0.62222  F_PARALLEL= 0.33333):
 ============================================================================
 SCS-DF-MP2                            -0.444126383205   -115.544211458270
 SCS-DF-MP2-F12/3*C(DX,FIX)            -0.492692642174   -115.592777717238
 SCS-DF-MP2-F12/3*C(FIX)               -0.489878847349   -115.589963922414
 SCS-DF-MP2-F12/3C(FIX)                -0.489894019273   -115.589979094338
 Symmetry transformation completed.

 Number of N-1 electron functions:               7
 Number of N-2 electron functions:              28
 Number of singly external CSFs:              1183
 Number of doubly external CSFs:            700336
 Total number of CSFs:                      701520

 Length of J-op  integral file:             104.98 MB
 Length of K-op  integral file:             138.67 MB

 Integral transformation finished. Total CPU:   1.29 sec, npass=  1  Memory used:   2.18 MW

 ITER.      SQ.NORM     CORR.ENERGY   TOTAL ENERGY   ENERGY CHANGE     VAR   MIC
   1      1.00000000    -0.44353512  -115.54362020    -0.44353512  0.00D+00   0
   2      1.11474076    -0.44353512  -115.54362020     0.00000000 -0.35D-15   0

 Solving MP2-F12 equations

   1      1.11470445    -0.48287454  -115.58295962    -0.03933942 -0.37D-04   0
   2      1.11470445    -0.48363110  -115.58371617    -0.00075656  0.17D-17   0
   3      1.11470445    -0.48363110  -115.58371617     0.00000000 -0.88D-19   0

 CPU TIME FOR ITERATIVE MP2:    0.10 SEC


 MP2-F12 energy corrections:
 ===========================
 Approx.                                    Singlet             Triplet             Total
 MP2-F12/3*C(DX,FIX)                   -0.038287506340     -0.004212725401     -0.042500231741
 MP2-F12/3*C(FIX)                      -0.036088764225     -0.003930986369     -0.040019750594
 MP2-F12/3C(FIX)                       -0.036028721053     -0.004067254662     -0.040095975715

 MP2-F12 correlation energies:
 =============================
 Approx.                                    Singlet             Triplet             Ecorr            Total Energy
 MP2                                   -0.291281890724     -0.152253232174     -0.443535122898   -115.543620197963
 MP2-F12/3*C(DX,FIX)                   -0.329569397064     -0.156465957575     -0.486035354639   -115.586120429704
 MP2-F12/3*C(FIX)                      -0.327370654949     -0.156184218543     -0.483554873492   -115.583639948556
 MP2-F12/3C(FIX)                       -0.327310611777     -0.156320486836     -0.483631098613   -115.583716173678

 SCS-MP2 energies (F_SING= 1.20000  F_TRIP= 0.62222  F_PARALLEL= 0.33333):
 =========================================================================
 SCS-MP2                               -0.444273613333   -115.544358688397
 SCS-MP2-F12/3*C(DX,FIX)               -0.492839872301   -115.592924947366
 SCS-MP2-F12/3*C(FIX)                  -0.490026077476   -115.590111152541
 SCS-MP2-F12/3C(FIX)                   -0.490038814831   -115.590123889895


  Reference energy                   -115.098731491605
  F12 singles correction               -0.001353583460

 F12 singles corrections added to reference energy

  New reference energy               -115.100085075065

  F12/3C(F) singlet correction         -0.036028721053
  F12/3C(F) triplet correction         -0.004067254662
  F12/3C(F) total correction           -0.040095975715
  MP2-F12/3C(F) singlet pair energy    -0.327310611777
  MP2-F12/3C(F) triplet pair energy    -0.156320486836
  MP2-F12/3C(F) correlation energy     -0.483631098613

 !MP2-F12/3C(F) total energy         -115.583716173678


 **********************************************************************************************************************************
 DATASETS  * FILE   NREC   LENGTH (MB)   RECORD NAMES
              1      20      575.56       500      610      700      900      950      970     1000      129      960     1100   
                                          VAR    BASINP    GEOM    SYMINP    ZMAT    AOBASIS   BASIS     P2S    ABASIS      S 
                                         1400     1410     1200     1210     1080     1600     1650     1300     1700     1380   
                                           T        V       H0       H01     AOSYM     SMH    MOLCAS    ERIS     OPER     JKOP   

              2       7        4.13       700     1000      520     2100     7360     7350     7000   
                                         GEOM     BASIS   MCVARS     RHF    F12ABS    EF12   

 PROGRAMS   *        TOTAL   MP2-F12    HF-SCF       INT
 CPU TIMES  *        24.98      7.79      7.98      9.09
 REAL TIME  *       112.78 SEC
 DISK USED  *         2.15 GB
 **********************************************************************************************************************************


 PROGRAM * CCSD (Closed-shell coupled cluster)     Authors: C. Hampel, H.-J. Werner, 1991, M. Deegan, P.J. Knowles, 1992

                                  CCSD-F12 implementation by  H.-J. Werner, 2007

                   Density fitting integral evaluation by F.R. Manby, 2003,2007, G. Knizia, 2010



 Convergence thresholds:  THRVAR = 1.00D-08  THRDEN = 1.00D-06

 CCSD(T)     terms to be evaluated (factor= 1.000)


 Number of core orbitals:           2 (   2 )
 Number of closed-shell orbitals:   7 (   7 )
 Number of external orbitals:     169 ( 169 )

 Molecular orbitals read from record     2100.2  Type=RHF/CANONICAL (state 1.1)

 MP2-F12 correlation treatment (H.-J. Werner, 2006)
 ==================================================

 Using MP2-F12 with ansatz 3C(FIX)

 Using projected zeroth-order Hamiltonian (+Z)

 FOCKRIB=T FOCKRIC=T FOCKRIP=T CABSP=T CABSA=T CABSK=T CABSF=T GBC=F EBC=F DMAT=T NOFIK=T NOPAO=1 SOLVE=-1  USEPAO=0
 EXCH_A= T EXCH_B= F EXCH_C= F EXCH_P= F

 Geminal basis:    OPTFULL  GEM_TYPE=SLATER  BETA=1.0  NGEM=6

 Optimizing Gaussian exponents for each gem_beta

 Geminal optimization for beta= 1.0000
 Weight function:   m=0, omega= 1.4646

 Augmented Hessian optimization of geminal fit. Trust ratio= 0.40000
 Convergence reached after   2 iterations. Final gradient= 8.66D-16, Step= 4.23D-06, Delta= 1.28D-09

 Alpha:                 0.19532     0.81920     2.85917     9.50073    35.69989   197.79328
 Coeff:                 0.27070     0.30552     0.18297     0.10986     0.06810     0.04224


 All pairs explicitly correlated. Number of r12-pairs:           28

 Excluding core orbitals from MO domains

 AO(A)-basis ORBITAL           loaded. Number of functions:     178
 RI(R)-basis CC-PVTZ-F12/OPTRI loaded. Number of functions:     314
 DF-basis AUG-CC-PVTZ/JKFIT    loaded. Number of functions:     392

 Screening thresholds:   THRAO=  1.00D-10  THRMO=  1.00D-09  THRPROD=  1.00D-09
                         THRSW=  1.00D-05  THROV=  1.00D-12  THRAOF12= 1.00D-08

 CPU time for Fock operators                      1.49 sec

 Construction of ABS:
 Smallest eigenvalue of S          4.38E-04  (threshold= 1.00E-08)
 Ratio eigmin/eigmax               5.60E-05  (threshold= 1.00E-09)
 Smallest eigenvalue of S kept     4.38E-04  (threshold= 4.38E-04, 0 functions deleted, 314 kept)

 Construction of CABS:
 Smallest eigenvalue of S          7.26E-07  (threshold= 1.00E-08)
 Ratio eigmin/eigmax               7.26E-07  (threshold= 1.00E-09)
 Smallest eigenvalue of S kept     7.26E-07  (threshold= 7.26E-07, 0 functions deleted, 314 kept)

 CPU time for CABS singles                        0.04 sec

 CABS-singles contribution of  -0.00135358 patched into reference energy.
 New reference energy        -115.10008508

 AO(A)-basis ORBITAL           loaded. Number of functions:     178
 RI(R)-basis CC-PVTZ-F12/OPTRI loaded. Number of functions:     314
 DF-basis AUG-CC-PVTZ/MP2FIT   loaded. Number of functions:     396

 Screening thresholds:   THRAO=  1.00D-10  THRMO=  1.00D-09  THRPROD=  1.00D-09
                         THRSW=  1.00D-05  THROV=  1.00D-12  THRAOF12= 1.00D-08

 CPU time for 3-index integral evaluation         3.28 sec
 CPU time for first  half transformation          0.27 sec ( 9144.6 MFLOP/sec)
 CPU time for sorting                             0.01 sec
 CPU time for fitting                             0.01 sec (******* MFLOP/sec)
 CPU time for tilde quantities                    0.03 sec (50348.4 MFLOP/sec)
 CPU time for assembly                            0.20 sec (61768.0 MFLOP/sec)
 CPU time for tranop_f12                          0.22 sec (72091.9 MFLOP/sec)
 CPU time for f12 integrals (total)               4.42 sec, Elapsed time:      4.85 sec
 CPU time for f12 matrices (total)                0.10 sec, Elapsed time:      0.14 sec

 Diagonal F12 approximation with fixed coefficients:  TSING= 0.500,  TTRIP= 0.250 (scaled by -1/beta)

 DF-MP2-F12 energy corrections:
 ==============================
 Approx.                                    Singlet             Triplet             Total
 DF-MP2-F12/3*C(DX,FIX)                -0.038287506340     -0.004212725401     -0.042500231741
 DF-MP2-F12/3*C(FIX)                   -0.036088764225     -0.003930986369     -0.040019750594
 DF-MP2-F12/3C(FIX)                    -0.036031422717     -0.004065957013     -0.040097379729

 DF-MP2-F12 correlation energies:
 ================================
 Approx.                                    Singlet             Triplet             Ecorr            Total Energy
 DF-MP2                                -0.291098572362     -0.152370154882     -0.443468727244   -115.543553802309
 DF-MP2-F12/3*C(DX,FIX)                -0.329386078702     -0.156582880283     -0.485968958985   -115.586054034049
 DF-MP2-F12/3*C(FIX)                   -0.327187336586     -0.156301141251     -0.483488477838   -115.583573552902
 DF-MP2-F12/3C(FIX)                    -0.327129995079     -0.156436111895     -0.483566106973   -115.583651182038

 SCS-DF-MP2 energies (F_SING= 1.20000  F_TRIP= 0.62222  F_PARALLEL= 0.33333):
 ============================================================================
 SCS-DF-MP2                            -0.444126383205   -115.544211458270
 SCS-DF-MP2-F12/3*C(DX,FIX)            -0.492692642174   -115.592777717238
 SCS-DF-MP2-F12/3*C(FIX)               -0.489878847349   -115.589963922414
 SCS-DF-MP2-F12/3C(FIX)                -0.489894019273   -115.589979094338
 Symmetry transformation completed.

 Number of N-1 electron functions:               7
 Number of N-2 electron functions:              28
 Number of singly external CSFs:              1183
 Number of doubly external CSFs:            700336
 Total number of CSFs:                      701520

 Length of J-op  integral file:             105.23 MB
 Length of K-op  integral file:             138.67 MB
 Length of 3-ext integral record:             0.00 MB

 Memory could be reduced to 48.01 Mwords without degradation in triples

 Integral transformation finished. Total CPU:   3.05 sec, npass=  1  Memory used:  24.86 MW

 Reference energy:                   -115.10008508

 Adding F12 terms to K(Cij), methodcc=6,  factor= 1.0

 ITER.      SQ.NORM     CORR.ENERGY   TOTAL ENERGY   ENERGY CHANGE        DEN1      VAR(S)    VAR(P)  DIIS     TIME  TIME/IT
   1      1.11762835    -0.45286678  -115.55295185    -0.00933165     0.00166945  0.15D-02  0.19D-02  1  1    11.88     4.02
   2      1.12503808    -0.45322875  -115.55331383    -0.00036198    -0.00904626  0.24D-04  0.23D-03  2  2    14.51     4.20
   3      1.12776781    -0.45340621  -115.55349128    -0.00017745    -0.00186525  0.15D-04  0.13D-04  3  3    17.18     4.55
   4      1.12871509    -0.45342409  -115.55350917    -0.00001788    -0.00060018  0.86D-06  0.12D-05  4  4    20.13     5.69
   5      1.12887061    -0.45342565  -115.55351072    -0.00000156    -0.00003790  0.23D-06  0.10D-06  5  5    22.86     5.80
   6      1.12891316    -0.45342330  -115.55350837     0.00000235    -0.00000422  0.36D-07  0.96D-08  6  6    25.56     5.95
   7      1.12892428    -0.45342242  -115.55350750     0.00000087    -0.00000298  0.39D-08  0.14D-08  6  1    28.39     6.19
   8      1.12892607    -0.45342248  -115.55350756    -0.00000006     0.00000033  0.67D-09  0.20D-09  6  3    31.15     6.09

 Norm of t1 vector:      0.05000227      S-energy:     0.00000010      T1 diagnostic:  0.00944954
                                                                       D1 diagnostic:  0.02003051

 Adding energy correction from Wij-K(Fij), methodcc=6  factor= 1.0

  CCSD correlation energy              -0.453422483293
  MP2-F12 correction (uncoupled)       -0.038545931598
  C*T doubles correction               -0.001164730531
  f12b correction                       0.007098805966


 Total CPU time for triples:     33.83 sec


 RESULTS
 =======

  Reference energy                   -115.098731491605
  F12 singles correction               -0.001353583460

 F12 singles corrections added to reference energy

  New reference energy               -115.100085075065

  F12a singlet correction              -0.035791990815
  F12a triplet correction              -0.003918671314
  F12a total correction                -0.039710662129

 F12a corrections for ansatz F12/3C(FIX) added to CCSD energy

  CCSD-F12a singlet pair energy        -0.351212752931
  CCSD-F12a triplet pair energy        -0.141920492149
  CCSD-F12a correlation energy         -0.493133145422

  Triples (T) contribution             -0.016015213975
  Total correlation energy             -0.509148359397

  CCSD-F12a total energy             -115.593218220487
  CCSD[T]-F12a energy                -115.609786478373
  CCSD-T-F12a energy                 -115.608989726911
 !CCSD(T)-F12a total energy          -115.609233434461

 F12b corrections for ansatz F12/3C(FIX) added to CCSD(T)-F12a energy

  CCSD-F12b singlet pair energy        -0.344576048635
  CCSD-F12b triplet pair energy        -0.141458390478
  CCSD-F12b correlation energy         -0.486034339456

  Triples (T) contribution             -0.016015213975
  Total correlation energy             -0.502049553431

  CCSD-F12b total energy             -115.586119414521
  CCSD[T]-F12b energy                -115.602687672407
  CCSD-T-F12b energy                 -115.601890920946
 !CCSD(T)-F12b total energy          -115.602134628496

 Timing summary (sec):

 STEP                 CPU(USER)    SYS     CPU(TOT)    WALL
 Transformation          3.10      1.58      4.68      7.79
 CCSD iterations        21.93      8.12     30.05     49.03
 Triples                33.83      2.84     36.67     38.57
 MP2-F12                 6.13      0.52      6.65      6.72
 F12b energy             2.10      0.12      2.22      2.29

 Program statistics:

 Available memory in ccsd:               499999646
 Min. memory needed in ccsd:               2228017
 Max. memory used in ccsd:                 2807120
 Max. memory used in cckext:               2027429 ( 9 integral passes)



 **********************************************************************************************************************************
 DATASETS  * FILE   NREC   LENGTH (MB)   RECORD NAMES
              1      20      711.51       500      610      700      900      950      970     1000      129      960     1100   
                                          VAR    BASINP    GEOM    SYMINP    ZMAT    AOBASIS   BASIS     P2S    ABASIS      S 
                                         1400     1410     1200     1210     1080     1600     1650     1300     1700     1380   
                                           T        V       H0       H01     AOSYM     SMH    MOLCAS    ERIS     OPER     JKOP   

              2       7        4.13       700     1000      520     2100     7360     7350     7000   
                                         GEOM     BASIS   MCVARS     RHF    F12ABS    EF12   

 PROGRAMS   *        TOTAL   CCSD(T)   MP2-F12    HF-SCF       INT
 CPU TIMES  *        92.12     67.14      7.79      7.98      9.09
 REAL TIME  *       217.40 SEC
 DISK USED  *         2.15 GB
 **********************************************************************************************************************************
 SETTING XXX            =    "MMM"
 SETTING POINT          =        97.00000000                                  

 *** ### CH3OH


 XXX       RCO          ROH          RCH1         RCH2         RCH3           ACOH           AOCH1          AOCH2          AOCH3         AHH1           AHH2           AHH3            ENERGY       POINT
 "MMM"   1.42077677   0.96013932   1.09171752   1.08440070   1.09171752   108.12930637   111.65221523   107.18733878   111.65221523   61.43364279   180.61237244   297.95398477   -115.60923343   97.0000
                                                  

 CCSD(T)-F12/cc-pVTZ-F12 energy=   -115.602134628496

     CCSD(T)-F12         MP2-F12          HF-SCF
   -115.60213463   -115.58371617   -115.09873149
 **********************************************************************************************************************************
 Molpro calculation terminated
