
 Primary working directories    : /tmpdir/job/2955578.undefined/molpro.r18DiJ2gQY
 Secondary working directories  : /tmpdir/job/2955578.undefined/molpro.r18DiJ2gQY
 Wavefunction directory         : /home/zcaposm/wfu/
 Main file repository           : /tmpdir/job/2955578.undefined/molpro.r18DiJ2gQY/

 id        : uclcc

 Nodes                         nprocs
 node-d00a-131.myriad.ucl.ac.uk    1

 Using customized tuning parameters: mindgm=1; mindgv=20; mindgc=4; mindgr=1; noblas=0; minvec=7
 default implementation of scratch files=df  


 Variables initialized (945), CPU time= 0.00 sec
 ***,Methanol Ground State Energy with CCSD(T)-F12 and cc-pVTZ-F12
 memory,500,m;
 
 geometry={angstrom
 c
 o , 1, rco
 h , 2, roh, 1, acoh
 h1, 1, rch1, 2, aoch1  3  ahh1
 h2, 1, rch2, 2, aoch2, 3, ahh2
 h3, 1, rch3, 2, aoch3, 3, ahh3
 }
 
                                                ! Specify the initial values of the internal coordinates (in Angstroms and degrees)
 
 rco= 1.42077677
 roh= 0.95513932
 rch1= 1.091717515605
 rch2= 1.08440070258
 rch3= 1.091717515605
 acoh= 108.12930637
 aoch1= 111.6522152299
 aoch2= 107.18733878260001
 aoch3= 111.6522152299
 ahh1=61.43364279
 ahh2=180.0
 ahh3=298.56635721
 
                                                                                 ! Use the cc-pVTZ-F12 basis set
 basis=cc-pVTZ-F12
 
 hf
 
                                                                                 ! Use explicitly correlated F12 methods
                                                                            ! First, MP2-F12 (useful for initial electronic energy)
 {mp2-f12}
 
                                                                        ! If desired, perform CCSD(T)-F12 for more accurate results
 {ccsd(t)-f12}
 
                                                                                 ! Output the energy
 xxx = "mmm"
 point = 15
 text ### CH3OH
 table,xxx,rco,roh,rch1,rch2,rch3,acoh,aoch1,aoch2,aoch3,ahh1,ahh2,ahh3,energy,point
 DIGITS, 0, 8, 8, 8, 8, 8, 8, 8, 8, 8,  8,  8,  8, 8, 4
 save,CH3OH_MEP_MP2_15.dat,new
 
 Commands  initialized (802), CPU time= 0.00 sec, 659 directives.
 Default parameters read. Elapsed time= 0.08 sec

 Checking input...
 Passed
1


                                         ***  PROGRAM SYSTEM MOLPRO  ***
                                       Copyright, TTI GmbH Stuttgart, 2015
                                    Version 2020.1 linked Oct  6 2020 12:04:11


 **********************************************************************************************************************************
 LABEL *   Methanol Ground State Energy with CCSD(T)-F12 and cc-pVTZ-F12                 
  64 bit serial version                                                                  DATE: 08-Oct-24          TIME: 17:11:36  
 **********************************************************************************************************************************

 SHA1:             8c27446f6450a7499e38f603e13c65f775101d37
 **********************************************************************************************************************************

 Memory per process:       500 MW
 Total memory per node:    500 MW

 GA preallocation disabled
 GA check disabled

 Variable memory set to 500.0 MW

 SETTING RCO            =         1.42077677                                  
 SETTING ROH            =         0.95513932                                  
 SETTING RCH1           =         1.09171752                                  
 SETTING RCH2           =         1.08440070                                  
 SETTING RCH3           =         1.09171752                                  
 SETTING ACOH           =       108.12930637                                  
 SETTING AOCH1          =       111.65221523                                  
 SETTING AOCH2          =       107.18733878                                  
 SETTING AOCH3          =       111.65221523                                  
 SETTING AHH1           =        61.43364279                                  
 SETTING AHH2           =       180.00000000                                  
 SETTING AHH3           =       298.56635721                                  
 SETTING BASIS          =    CC-PVTZ-F12


 Recomputing integrals since basis changed


 Using spherical harmonics

 Library entry C      S cc-pVTZ-F12          selected for orbital group  1
 Library entry C      P cc-pVTZ-F12          selected for orbital group  1
 Library entry C      D cc-pVTZ-F12          selected for orbital group  1
 Library entry C      F cc-pVTZ-F12          selected for orbital group  1
 Library entry O      S cc-pVTZ-F12          selected for orbital group  2
 Library entry O      P cc-pVTZ-F12          selected for orbital group  2
 Library entry O      D cc-pVTZ-F12          selected for orbital group  2
 Library entry O      F cc-pVTZ-F12          selected for orbital group  2
 Library entry H      S cc-pVTZ-F12          selected for orbital group  3
 Library entry H      P cc-pVTZ-F12          selected for orbital group  3
 Library entry H      D cc-pVTZ-F12          selected for orbital group  3


 PROGRAM * SEWARD (Integral evaluation for generally contracted gaussian basis sets)     Author: Roland Lindh, 1990

 Geometry written to block  1 of record 700

 Orientation using atomic masses  
 Molecule type: Asymmetric top
 Symmetry elements: X
 Rotational constants:      23.9717029     24.8127839    129.0372715 GHz  (calculated with average atomic masses)

 Point group  Cs  



 ATOMIC COORDINATES

 NR  ATOM    CHARGE       X              Y              Z

   1  C       6.00    0.000000000    0.024927359   -1.376493904
   2  O       8.00    0.000000000   -0.121266696    1.304401923
   3  H       1.00    0.000000000    1.560955022    1.958604357
   4  H1      1.00    1.684053272    0.981908729   -2.086645023
   5  H3      1.00   -1.684053272    0.981908729   -2.086645023
   6  H2      1.00    0.000000000   -1.896905884   -2.087732947

 Bond lengths in Bohr (Angstrom)

 1-2  2.684878979  1-4  2.063047110  1-5  2.063047110  1-6  2.049220337  2-3  1.804951726
     ( 1.420776770)     ( 1.091717516)     ( 1.091717516)     ( 1.084400703)     ( 0.955139320)

 Bond angles

  1-2-3  108.12930637   2-1-4  111.65221523   2-1-5  111.65221523   2-1-6  107.18733878

  4-1-5  109.43105099   4-1-6  108.39459424   5-1-6  108.39459424

 NUCLEAR CHARGE:                   18
 NUMBER OF PRIMITIVE AOS:         228
 NUMBER OF SYMMETRY AOS:          206
 NUMBER OF CONTRACTIONS:          178   (  114A'  +   64A"  )
 NUMBER OF INNER CORE ORBITALS:     0   (    0A'  +    0A"  )
 NUMBER OF OUTER CORE ORBITALS:     2   (    2A'  +    0A"  )
 NUMBER OF VALENCE ORBITALS:       12   (    9A'  +    3A"  )


 NUCLEAR REPULSION ENERGY   40.37236501

 Eigenvalues of metric

         1 0.879E-04 0.181E-03 0.309E-03 0.460E-03 0.492E-03 0.560E-03 0.617E-03 0.621E-03
         2 0.323E-03 0.570E-03 0.686E-03 0.178E-02 0.338E-02 0.491E-02 0.643E-02 0.853E-02


 Contracted 2-electron integrals neglected if value below      1.0D-11
 AO integral compression algorithm  1   Integral accuracy      1.0D-11

     331.612 MB (compressed) written to integral file ( 53.5%)


 NUMBER OF SORTED TWO-ELECTRON INTEGRALS:   64554730.     BUFFER LENGTH:  32768
 NUMBER OF SEGMENTS:   5  SEGMENT LENGTH:   15997996      RECORD LENGTH: 524288

 Memory used in sort:      16.56 MW

 SORT1 READ    77497885. AND WROTE    63556298. INTEGRALS IN    184 RECORDS. CPU TIME:     2.11 SEC, REAL TIME:   160.04 SEC
 SORT2 READ    63556298. AND WROTE    64554730. INTEGRALS IN   1265 RECORDS. CPU TIME:     1.40 SEC, REAL TIME:   409.67 SEC

 FILE SIZES:   FILE 1:   362.5 MBYTE,  FILE 4:   771.8 MBYTE,   TOTAL:   1134.3 MBYTE

 OPERATOR DM      FOR CENTER  0  COORDINATES:    0.000000    0.000000    0.000000


 **********************************************************************************************************************************
 DATASETS  * FILE   NREC   LENGTH (MB)   RECORD NAMES
              1      19      311.85       500      610      700      900      950      970     1000      129      960     1100   
                                          VAR    BASINP    GEOM    SYMINP    ZMAT    AOBASIS   BASIS     P2S    ABASIS      S 
                                         1400     1410     1200     1210     1080     1600     1650     1300     1700   
                                           T        V       H0       H01     AOSYM     SMH    MOLCAS    ERIS     OPER   

 PROGRAMS   *        TOTAL       INT
 CPU TIMES  *         7.05      6.95
 REAL TIME  *       679.45 SEC
 DISK USED  *         1.13 GB
 **********************************************************************************************************************************


 PROGRAM * RHF-SCF (CLOSED SHELL)       Authors: W. Meyer, H.-J. Werner


 NUMBER OF ELECTRONS:       9+    9-
 CONVERGENCE THRESHOLDS:    1.00E-05 (Density)    1.00E-07 (Energy)
 MAX. NUMBER OF ITERATIONS:       60
 INTERPOLATION TYPE:            DIIS
 INTERPOLATION STEPS:              2 (START)      1 (STEP)
 LEVEL SHIFTS:                  0.00 (CLOSED)  0.00 (OPEN) 



 Orbital guess generated from atomic densities. Full valence occupancy:   11   3

 Molecular orbital dump at record        2100.2

 Initial occupancy:   7   2

 ITERATION    DDIFF          GRAD             ENERGY        2-EL.EN.            DIPOLE MOMENTS         DIIS   ORB.
    1      0.000D+00      0.000D+00      -115.06263630    164.521740    0.00000    0.89860   -0.48222    0    start
    2      0.000D+00      0.668D-02      -115.09096031    161.949477    0.00000    0.49527   -0.30546    1    diag
    3      0.654D-02      0.365D-02      -115.09841226    163.206323    0.00000    0.59764   -0.39865    2    diag
    4      0.221D-02      0.719D-03      -115.09894107    163.030783    0.00000    0.59286   -0.39381    3    diag
    5      0.592D-03      0.144D-03      -115.09897490    163.042196    0.00000    0.58899   -0.39849    4    diag
    6      0.164D-03      0.267D-04      -115.09897641    163.039965    0.00000    0.58916   -0.39924    5    diag
    7      0.470D-04      0.557D-05      -115.09897648    163.039603    0.00000    0.58899   -0.39950    6    diag
    8      0.117D-04      0.144D-05      -115.09897649    163.039938    0.00000    0.58897   -0.39953    7    diag
    9      0.229D-05      0.456D-06      -115.09897649    163.039778    0.00000    0.58896   -0.39953    0    orth

 Final occupancy:   7   2

 !RHF STATE  1.1 Energy              -115.098976485993
 Nuclear energy                        40.37236501
 One-electron energy                 -236.99123055
 Two-electron energy                   81.51988905
 Virial quotient                       -1.00093354
 !RHF STATE  1.1 Dipole moment          0.00000000     0.58895655    -0.39953193
 Dipole moment /Debye                   0.00000000     1.49688018    -1.01544236

 Orbital energies:

         1.1          2.1          3.1          4.1          5.1          6.1          7.1          8.1          9.1
    -20.555880   -11.269831    -1.358097    -0.926874    -0.691819    -0.594577    -0.504673     0.054684     0.065035

         1.2          2.2          3.2          4.2
     -0.621665    -0.452311     0.073784     0.181488


 HOMO      2.2    -0.452311 =     -12.3080eV
 LUMO      8.1     0.054684 =       1.4880eV
 LUMO-HOMO         0.506995 =      13.7960eV


 **********************************************************************************************************************************
 DATASETS  * FILE   NREC   LENGTH (MB)   RECORD NAMES
              1      19      311.85       500      610      700      900      950      970     1000      129      960     1100   
                                          VAR    BASINP    GEOM    SYMINP    ZMAT    AOBASIS   BASIS     P2S    ABASIS      S 
                                         1400     1410     1200     1210     1080     1600     1650     1300     1700   
                                           T        V       H0       H01     AOSYM     SMH    MOLCAS    ERIS     OPER   

              2       4        3.18       700     1000      520     2100   
                                         GEOM     BASIS   MCVARS     RHF  

 PROGRAMS   *        TOTAL    HF-SCF       INT
 CPU TIMES  *        10.28      3.22      6.95
 REAL TIME  *       751.06 SEC
 DISK USED  *         1.13 GB
 **********************************************************************************************************************************


 PROGRAM * MP2 (Closed-shell)     Authors: C. Hampel, H.-J. Werner, 1991, M. Deegan, P.J. Knowles, 1992

                                   MP2-F12 implementation by H.-J. Werner, 2007

                   Density fitting integral evaluation by F.R. Manby, 2003,2007, G. Knizia, 2010


 Basis set AUG-CC-PVTZ/JKFIT generated.  Number of basis functions:   392 
 Basis set CC-PVTZ-F12/OPTRI generated.  Number of basis functions:   314 
 Basis set AUG-CC-PVTZ/MP2FIT generated. Number of basis functions:   396 

 Convergence thresholds:  THRVAR = 1.00D-08  THRDEN = 1.00D-06

 Number of core orbitals:           2 (   2   0 )
 Number of closed-shell orbitals:   7 (   5   2 )
 Number of external orbitals:     169 ( 107  62 )

 Molecular orbitals read from record     2100.2  Type=RHF/CANONICAL (state 1.1)

 MP2-F12 correlation treatment (H.-J. Werner, 2006)
 ==================================================

 Using MP2-F12 with ansatz 3C(FIX)

 Using projected zeroth-order Hamiltonian (+Z)

 FOCKRIB=T FOCKRIC=T FOCKRIP=T CABSP=T CABSA=T CABSK=T CABSF=T GBC=F EBC=F DMAT=T NOFIK=T NOPAO=1 SOLVE=-1  USEPAO=0
 EXCH_A= T EXCH_B= F EXCH_C= F EXCH_P= F

 Geminal basis:    OPTFULL  GEM_TYPE=SLATER  BETA=1.0  NGEM=6

 Optimizing Gaussian exponents for each gem_beta

 Geminal optimization for beta= 1.0000
 Weight function:   m=0, omega= 1.4646

 Augmented Hessian optimization of geminal fit. Trust ratio= 0.40000
 Convergence reached after   2 iterations. Final gradient= 8.66D-16, Step= 4.23D-06, Delta= 1.28D-09

 Alpha:                 0.19532     0.81920     2.85917     9.50073    35.69989   197.79328
 Coeff:                 0.27070     0.30552     0.18297     0.10986     0.06810     0.04224


 Symmetry turned off. Reference energy:       -115.098976485993

 All pairs explicitly correlated. Number of r12-pairs:           28

 Excluding core orbitals from MO domains

 AO(A)-basis ORBITAL           loaded. Number of functions:     178
 RI(R)-basis CC-PVTZ-F12/OPTRI loaded. Number of functions:     314
 DF-basis AUG-CC-PVTZ/JKFIT    loaded. Number of functions:     392

 Screening thresholds:   THRAO=  1.00D-10  THRMO=  1.00D-09  THRPROD=  1.00D-09
                         THRSW=  1.00D-05  THROV=  1.00D-12  THRAOF12= 1.00D-08

 CPU time for Fock operators                      5.38 sec

 Construction of ABS:
 Smallest eigenvalue of S          4.34E-04  (threshold= 1.00E-08)
 Ratio eigmin/eigmax               5.54E-05  (threshold= 1.00E-09)
 Smallest eigenvalue of S kept     4.34E-04  (threshold= 4.34E-04, 0 functions deleted, 314 kept)

 Construction of CABS:
 Smallest eigenvalue of S          7.24E-07  (threshold= 1.00E-08)
 Ratio eigmin/eigmax               7.24E-07  (threshold= 1.00E-09)
 Smallest eigenvalue of S kept     7.24E-07  (threshold= 7.24E-07, 0 functions deleted, 314 kept)

 CPU time for CABS singles                        0.04 sec

 CABS-singles contribution of  -0.00135837 patched into reference energy.
 New reference energy        -115.10033486

 AO(A)-basis ORBITAL           loaded. Number of functions:     178
 RI(R)-basis CC-PVTZ-F12/OPTRI loaded. Number of functions:     314
 DF-basis AUG-CC-PVTZ/MP2FIT   loaded. Number of functions:     396

 Screening thresholds:   THRAO=  1.00D-10  THRMO=  1.00D-09  THRPROD=  1.00D-09
                         THRSW=  1.00D-05  THROV=  1.00D-12  THRAOF12= 1.00D-08

 CPU time for 3-index integral evaluation         3.41 sec
 CPU time for first  half transformation          0.32 sec ( 7715.8 MFLOP/sec)
 CPU time for second half transformation          0.04 sec ( 1554.3 MFLOP/sec)
 CPU time for sorting                             0.01 sec
 CPU time for fitting                             0.03 sec (37980.8 MFLOP/sec)
 CPU time for tilde quantities                    0.02 sec (75522.6 MFLOP/sec)
 CPU time for assembly                            0.22 sec (56152.7 MFLOP/sec)
 CPU time for tranop_f12                          0.27 sec (58741.6 MFLOP/sec)
 CPU time for f12 integrals (total)               7.20 sec, Elapsed time:      7.52 sec
 CPU time for f12 matrices (total)                0.10 sec, Elapsed time:      0.14 sec

 Diagonal F12 approximation with fixed coefficients:  TSING= 0.500,  TTRIP= 0.250 (scaled by -1/beta)

 DF-MP2-F12 energy corrections:
 ==============================
 Approx.                                    Singlet             Triplet             Total
 DF-MP2-F12/3*C(DX,FIX)                -0.038301268662     -0.004215028949     -0.042516297611
 DF-MP2-F12/3*C(FIX)                   -0.036098517097     -0.003932465159     -0.040030982255
 DF-MP2-F12/3C(FIX)                    -0.036041012901     -0.004067415152     -0.040108428053

 DF-MP2-F12 correlation energies:
 ================================
 Approx.                                    Singlet             Triplet             Ecorr            Total Energy
 DF-MP2                                -0.290956700281     -0.152283783359     -0.443240483639   -115.543575339298
 DF-MP2-F12/3*C(DX,FIX)                -0.329257968943     -0.156498812308     -0.485756781251   -115.586091636909
 DF-MP2-F12/3*C(FIX)                   -0.327055217377     -0.156216248517     -0.483271465894   -115.583606321553
 DF-MP2-F12/3C(FIX)                    -0.326997713181     -0.156351198511     -0.483348911692   -115.583683767351

 SCS-DF-MP2 energies (F_SING= 1.20000  F_TRIP= 0.62222  F_PARALLEL= 0.33333):
 ============================================================================
 SCS-DF-MP2                            -0.443902394427   -115.544237250085
 SCS-DF-MP2-F12/3*C(DX,FIX)            -0.492486601501   -115.592821457159
 SCS-DF-MP2-F12/3*C(FIX)               -0.489667482152   -115.590002337811
 SCS-DF-MP2-F12/3C(FIX)                -0.489682446002   -115.590017301661

 Symmetry restored.
 Symmetry transformation completed.

 Number of N-1 electron functions:               7
 Number of N-2 electron functions:              28
 Number of singly external CSFs:               659
 Number of doubly external CSFs:            355020
 Total number of CSFs:                      355680

 Length of J-op  integral file:             103.49 MB
 Length of K-op  integral file:             127.95 MB

 Integral transformation finished. Total CPU:   0.49 sec, npass=  1  Memory used:   0.67 MW

 ITER.      SQ.NORM     CORR.ENERGY   TOTAL ENERGY   ENERGY CHANGE     VAR   MIC
   1      1.00000000    -0.44330684  -115.54364170    -0.44330684  0.00D+00   0
   2      1.11454676    -0.44330684  -115.54364170     0.00000000 -0.47D-15   0

 Solving MP2-F12 equations

   1      1.11451054    -0.48265700  -115.58299186    -0.03935016 -0.37D-04   0
   2      1.11451054    -0.48341388  -115.58374873    -0.00075688  0.70D-18   0
   3      1.11451054    -0.48341388  -115.58374873     0.00000000  0.94D-19   0

 CPU TIME FOR ITERATIVE MP2:    0.04 SEC


 MP2-F12 energy corrections:
 ===========================
 Approx.                                    Singlet             Triplet             Total
 MP2-F12/3*C(DX,FIX)                   -0.038301268662     -0.004215028949     -0.042516297611
 MP2-F12/3*C(FIX)                      -0.036098517097     -0.003932465159     -0.040030982255
 MP2-F12/3C(FIX)                       -0.036038313177     -0.004068722322     -0.040107035499

 MP2-F12 correlation energies:
 =============================
 Approx.                                    Singlet             Triplet             Ecorr            Total Energy
 MP2                                   -0.291140020375     -0.152166823434     -0.443306843809   -115.543641699467
 MP2-F12/3*C(DX,FIX)                   -0.329441289037     -0.156381852383     -0.485823141420   -115.586157997078
 MP2-F12/3*C(FIX)                      -0.327238537471     -0.156099288592     -0.483337826064   -115.583672681722
 MP2-F12/3C(FIX)                       -0.327178333552     -0.156235545756     -0.483413879308   -115.583748734966

 SCS-MP2 energies (F_SING= 1.20000  F_TRIP= 0.62222  F_PARALLEL= 0.33333):
 =========================================================================
 SCS-MP2                               -0.444049603475   -115.544384459134
 SCS-MP2-F12/3*C(DX,FIX)               -0.492633810549   -115.592968666208
 SCS-MP2-F12/3*C(FIX)                  -0.489814691201   -115.590149546859
 SCS-MP2-F12/3C(FIX)                   -0.489827228732   -115.590162084391


  Reference energy                   -115.098976485993
  F12 singles correction               -0.001358369665

 F12 singles corrections added to reference energy

  New reference energy               -115.100334855658

  F12/3C(F) singlet correction         -0.036038313177
  F12/3C(F) triplet correction         -0.004068722322
  F12/3C(F) total correction           -0.040107035499
  MP2-F12/3C(F) singlet pair energy    -0.327178333552
  MP2-F12/3C(F) triplet pair energy    -0.156235545756
  MP2-F12/3C(F) correlation energy     -0.483413879308

 !MP2-F12/3C(F) total energy         -115.583748734966


 **********************************************************************************************************************************
 DATASETS  * FILE   NREC   LENGTH (MB)   RECORD NAMES
              1      20      317.59       500      610      700      900      950      970     1000      129      960     1100   
                                          VAR    BASINP    GEOM    SYMINP    ZMAT    AOBASIS   BASIS     P2S    ABASIS      S 
                                         1400     1410     1200     1210     1080     1600     1650     1300     1700     1380   
                                           T        V       H0       H01     AOSYM     SMH    MOLCAS    ERIS     OPER     JKOP   

              2       7        3.55       700     1000      520     2100     7360     7350     7000   
                                         GEOM     BASIS   MCVARS     RHF    F12ABS    EF12   

 PROGRAMS   *        TOTAL   MP2-F12    HF-SCF       INT
 CPU TIMES  *        23.75     13.47      3.22      6.95
 REAL TIME  *       775.05 SEC
 DISK USED  *         1.13 GB
 **********************************************************************************************************************************


 PROGRAM * CCSD (Closed-shell coupled cluster)     Authors: C. Hampel, H.-J. Werner, 1991, M. Deegan, P.J. Knowles, 1992

                                  CCSD-F12 implementation by  H.-J. Werner, 2007

                   Density fitting integral evaluation by F.R. Manby, 2003,2007, G. Knizia, 2010



 Convergence thresholds:  THRVAR = 1.00D-08  THRDEN = 1.00D-06

 CCSD(T)     terms to be evaluated (factor= 1.000)


 Number of core orbitals:           2 (   2   0 )
 Number of closed-shell orbitals:   7 (   5   2 )
 Number of external orbitals:     169 ( 107  62 )

 Molecular orbitals read from record     2100.2  Type=RHF/CANONICAL (state 1.1)

 MP2-F12 correlation treatment (H.-J. Werner, 2006)
 ==================================================

 Using MP2-F12 with ansatz 3C(FIX)

 Using projected zeroth-order Hamiltonian (+Z)

 FOCKRIB=T FOCKRIC=T FOCKRIP=T CABSP=T CABSA=T CABSK=T CABSF=T GBC=F EBC=F DMAT=T NOFIK=T NOPAO=1 SOLVE=-1  USEPAO=0
 EXCH_A= T EXCH_B= F EXCH_C= F EXCH_P= F

 Geminal basis:    OPTFULL  GEM_TYPE=SLATER  BETA=1.0  NGEM=6

 Optimizing Gaussian exponents for each gem_beta

 Geminal optimization for beta= 1.0000
 Weight function:   m=0, omega= 1.4646

 Augmented Hessian optimization of geminal fit. Trust ratio= 0.40000
 Convergence reached after   2 iterations. Final gradient= 8.66D-16, Step= 4.23D-06, Delta= 1.28D-09

 Alpha:                 0.19532     0.81920     2.85917     9.50073    35.69989   197.79328
 Coeff:                 0.27070     0.30552     0.18297     0.10986     0.06810     0.04224


 Symmetry turned off. Reference energy:       -115.098976485993

 All pairs explicitly correlated. Number of r12-pairs:           28

 Excluding core orbitals from MO domains

 AO(A)-basis ORBITAL           loaded. Number of functions:     178
 RI(R)-basis CC-PVTZ-F12/OPTRI loaded. Number of functions:     314
 DF-basis AUG-CC-PVTZ/JKFIT    loaded. Number of functions:     392

 Screening thresholds:   THRAO=  1.00D-10  THRMO=  1.00D-09  THRPROD=  1.00D-09
                         THRSW=  1.00D-05  THROV=  1.00D-12  THRAOF12= 1.00D-08

 CPU time for Fock operators                      5.36 sec

 Construction of ABS:
 Smallest eigenvalue of S          4.34E-04  (threshold= 1.00E-08)
 Ratio eigmin/eigmax               5.54E-05  (threshold= 1.00E-09)
 Smallest eigenvalue of S kept     4.34E-04  (threshold= 4.34E-04, 0 functions deleted, 314 kept)

 Construction of CABS:
 Smallest eigenvalue of S          7.24E-07  (threshold= 1.00E-08)
 Ratio eigmin/eigmax               7.24E-07  (threshold= 1.00E-09)
 Smallest eigenvalue of S kept     7.24E-07  (threshold= 7.24E-07, 0 functions deleted, 314 kept)

 CPU time for CABS singles                        0.04 sec

 CABS-singles contribution of  -0.00135837 patched into reference energy.
 New reference energy        -115.10033486

 AO(A)-basis ORBITAL           loaded. Number of functions:     178
 RI(R)-basis CC-PVTZ-F12/OPTRI loaded. Number of functions:     314
 DF-basis AUG-CC-PVTZ/MP2FIT   loaded. Number of functions:     396

 Screening thresholds:   THRAO=  1.00D-10  THRMO=  1.00D-09  THRPROD=  1.00D-09
                         THRSW=  1.00D-05  THROV=  1.00D-12  THRAOF12= 1.00D-08

 CPU time for 3-index integral evaluation         3.46 sec
 CPU time for first  half transformation          0.32 sec ( 7715.8 MFLOP/sec)
 CPU time for second half transformation          0.01 sec ( 6217.0 MFLOP/sec)
 CPU time for sorting                             0.02 sec
 CPU time for fitting                             0.01 sec (******* MFLOP/sec)
 CPU time for tilde quantities                    0.02 sec (75522.6 MFLOP/sec)
 CPU time for assembly                            0.22 sec (56152.7 MFLOP/sec)
 CPU time for tranop_f12                          0.26 sec (61000.9 MFLOP/sec)
 CPU time for f12 integrals (total)               7.30 sec, Elapsed time:      7.65 sec
 CPU time for f12 matrices (total)                0.11 sec, Elapsed time:      0.14 sec

 Diagonal F12 approximation with fixed coefficients:  TSING= 0.500,  TTRIP= 0.250 (scaled by -1/beta)

 DF-MP2-F12 energy corrections:
 ==============================
 Approx.                                    Singlet             Triplet             Total
 DF-MP2-F12/3*C(DX,FIX)                -0.038301268662     -0.004215028949     -0.042516297611
 DF-MP2-F12/3*C(FIX)                   -0.036098517097     -0.003932465159     -0.040030982255
 DF-MP2-F12/3C(FIX)                    -0.036041012901     -0.004067415152     -0.040108428053

 DF-MP2-F12 correlation energies:
 ================================
 Approx.                                    Singlet             Triplet             Ecorr            Total Energy
 DF-MP2                                -0.290956700281     -0.152283783359     -0.443240483639   -115.543575339298
 DF-MP2-F12/3*C(DX,FIX)                -0.329257968943     -0.156498812308     -0.485756781251   -115.586091636909
 DF-MP2-F12/3*C(FIX)                   -0.327055217377     -0.156216248517     -0.483271465894   -115.583606321553
 DF-MP2-F12/3C(FIX)                    -0.326997713181     -0.156351198511     -0.483348911692   -115.583683767351

 SCS-DF-MP2 energies (F_SING= 1.20000  F_TRIP= 0.62222  F_PARALLEL= 0.33333):
 ============================================================================
 SCS-DF-MP2                            -0.443902394427   -115.544237250085
 SCS-DF-MP2-F12/3*C(DX,FIX)            -0.492486601501   -115.592821457159
 SCS-DF-MP2-F12/3*C(FIX)               -0.489667482152   -115.590002337811
 SCS-DF-MP2-F12/3C(FIX)                -0.489682446002   -115.590017301661

 Symmetry restored.
 Symmetry transformation completed.

 Number of N-1 electron functions:               7
 Number of N-2 electron functions:              28
 Number of singly external CSFs:               659
 Number of doubly external CSFs:            355020
 Total number of CSFs:                      355680

 Length of J-op  integral file:             103.62 MB
 Length of K-op  integral file:             127.95 MB
 Length of 3-ext integral record:             0.00 MB

 Memory could be reduced to 24.20 Mwords without degradation in triples

 Integral transformation finished. Total CPU:   1.39 sec, npass=  1  Memory used:   7.45 MW

 Reference energy:                   -115.10033486

 Adding F12 terms to K(Cij), methodcc=6,  factor= 1.0

 ITER.      SQ.NORM     CORR.ENERGY   TOTAL ENERGY   ENERGY CHANGE        DEN1      VAR(S)    VAR(P)  DIIS     TIME  TIME/IT
   1      1.11746458    -0.45267319  -115.55300804    -0.00936634     0.00160420  0.15D-02  0.19D-02  1  1    15.15     0.93
   2      1.12484920    -0.45303389  -115.55336875    -0.00036070    -0.00902297  0.24D-04  0.23D-03  2  2    16.04     0.96
   3      1.12756495    -0.45321010  -115.55354495    -0.00017620    -0.00185862  0.15D-04  0.13D-04  3  3    16.94     0.97
   4      1.12850576    -0.45322771  -115.55356257    -0.00001762    -0.00059710  0.85D-06  0.12D-05  4  4    17.83     0.97
   5      1.12866000    -0.45322925  -115.55356411    -0.00000154    -0.00003763  0.23D-06  0.10D-06  5  5    18.74     0.98
   6      1.12870212    -0.45322691  -115.55356177     0.00000234    -0.00000416  0.35D-07  0.95D-08  6  6    19.64     0.99
   7      1.12871309    -0.45322604  -115.55356090     0.00000087    -0.00000296  0.39D-08  0.14D-08  6  1    20.56     0.99
   8      1.12871486    -0.45322610  -115.55356096    -0.00000006     0.00000033  0.66D-09  0.20D-09  6  3    21.45     0.99

 Norm of t1 vector:      0.04988135      S-energy:    -0.00000036      T1 diagnostic:  0.00942669
                                                                       D1 diagnostic:  0.01996389

 Adding energy correction from Wij-K(Fij), methodcc=6  factor= 1.0

  CCSD correlation energy              -0.453226101536
  MP2-F12 correction (uncoupled)       -0.038557465645
  C*T doubles correction               -0.001164816146
  f12b correction                       0.007097347528


 Total CPU time for triples:     13.92 sec


 RESULTS
 =======

  Reference energy                   -115.098976485993
  F12 singles correction               -0.001358369665

 F12 singles corrections added to reference energy

  New reference energy               -115.100334855658

  F12a singlet correction              -0.035802109683
  F12a triplet correction              -0.003920172108
  F12a total correction                -0.039722281791

 F12a corrections for ansatz F12/3C(FIX) added to CCSD energy

  CCSD-F12a singlet pair energy        -0.351056964026
  CCSD-F12a triplet pair energy        -0.141891058769
  CCSD-F12a correlation energy         -0.492948383327

  Triples (T) contribution             -0.015985608533
  Total correlation energy             -0.508933991860

  CCSD-F12a total energy             -115.593283238986
  CCSD[T]-F12a energy                -115.609819924986
  CCSD-T-F12a energy                 -115.609026074660
 !CCSD(T)-F12a total energy          -115.609268847518

 F12b corrections for ansatz F12/3C(FIX) added to CCSD(T)-F12a energy

  CCSD-F12b singlet pair energy        -0.344421787403
  CCSD-F12b triplet pair energy        -0.141428887865
  CCSD-F12b correlation energy         -0.485851035800

  Triples (T) contribution             -0.015985608533
  Total correlation energy             -0.501836644332

  CCSD-F12b total energy             -115.586185891458
  CCSD[T]-F12b energy                -115.602722577459
  CCSD-T-F12b energy                 -115.601928727132
 !CCSD(T)-F12b total energy          -115.602171499991

 Timing summary (sec):

 STEP                 CPU(USER)    SYS     CPU(TOT)    WALL
 Transformation          1.40      0.30      1.70      1.71
 CCSD iterations         7.15      0.80      7.95      7.98
 Triples                13.92      0.53     14.45     14.53
 MP2-F12                12.90      0.53     13.43     14.38
 F12b energy             0.70      0.08      0.78      0.79

 Program statistics:

 Available memory in ccsd:               499999650
 Min. memory needed in ccsd:               1149135
 Max. memory used in ccsd:                 1443104
 Max. memory used in cckext:               1888566 ( 9 integral passes)



 **********************************************************************************************************************************
 DATASETS  * FILE   NREC   LENGTH (MB)   RECORD NAMES
              1      20      386.16       500      610      700      900      950      970     1000      129      960     1100   
                                          VAR    BASINP    GEOM    SYMINP    ZMAT    AOBASIS   BASIS     P2S    ABASIS      S 
                                         1400     1410     1200     1210     1080     1600     1650     1300     1700     1380   
                                           T        V       H0       H01     AOSYM     SMH    MOLCAS    ERIS     OPER     JKOP   

              2       7        3.55       700     1000      520     2100     7360     7350     7000   
                                         GEOM     BASIS   MCVARS     RHF    F12ABS    EF12   

 PROGRAMS   *        TOTAL   CCSD(T)   MP2-F12    HF-SCF       INT
 CPU TIMES  *        59.86     36.10     13.47      3.22      6.95
 REAL TIME  *       814.54 SEC
 DISK USED  *         1.13 GB
 **********************************************************************************************************************************
 SETTING XXX            =    "MMM"
 SETTING POINT          =        15.00000000                                  

 *** ### CH3OH


 XXX       RCO          ROH          RCH1         RCH2         RCH3           ACOH           AOCH1          AOCH2          AOCH3         AHH1           AHH2           AHH3            ENERGY       POINT
 "MMM"   1.42077677   0.95513932   1.09171752   1.08440070   1.09171752   108.12930637   111.65221523   107.18733878   111.65221523   61.43364279   180.00000000   298.56635721   -115.60926885   15.0000
                                                  

 CCSD(T)-F12/cc-pVTZ-F12 energy=   -115.602171499991

     CCSD(T)-F12         MP2-F12          HF-SCF
   -115.60217150   -115.58374873   -115.09897649
 **********************************************************************************************************************************
 Molpro calculation terminated
