
 Primary working directories    : /tmpdir/job/2955562.undefined/molpro.p1LZnhgYlw
 Secondary working directories  : /tmpdir/job/2955562.undefined/molpro.p1LZnhgYlw
 Wavefunction directory         : /home/zcaposm/wfu/
 Main file repository           : /tmpdir/job/2955562.undefined/molpro.p1LZnhgYlw/

 id        : uclcc

 Nodes                         nprocs
 node-d00a-158.myriad.ucl.ac.uk    1

 Using customized tuning parameters: mindgm=1; mindgv=20; mindgc=4; mindgr=1; noblas=0; minvec=7
 default implementation of scratch files=df  


 Variables initialized (945), CPU time= 0.00 sec
 ***,Methanol Ground State Energy with CCSD(T)-F12 and cc-pVTZ-F12
 memory,500,m;
 
 geometry={angstrom
 c
 o , 1, rco
 h , 2, roh, 1, acoh
 h1, 1, rch1, 2, aoch1  3  ahh1
 h2, 1, rch2, 2, aoch2, 3, ahh2
 h3, 1, rch3, 2, aoch3, 3, ahh3
 }
 
                                                ! Specify the initial values of the internal coordinates (in Angstroms and degrees)
 
 rco= 1.42077677
 roh= 0.96013932
 rch1= 1.091717515605
 rch2= 1.08440070258
 rch3= 1.091717515605
 acoh= 108.12930637
 aoch1= 111.6522152299
 aoch2= 107.18733878260001
 aoch3= 111.6522152299
 ahh1=61.43364279
 ahh2=180.0
 ahh3=298.56635721
 
                                                                                 ! Use the cc-pVTZ-F12 basis set
 basis=cc-pVTZ-F12
 
 hf
 
                                                                                 ! Use explicitly correlated F12 methods
                                                                            ! First, MP2-F12 (useful for initial electronic energy)
 {mp2-f12}
 
                                                                        ! If desired, perform CCSD(T)-F12 for more accurate results
 {ccsd(t)-f12}
 
                                                                                 ! Output the energy
 xxx = "mmm"
 point = 1
 text ### CH3OH
 table,xxx,rco,roh,rch1,rch2,rch3,acoh,aoch1,aoch2,aoch3,ahh1,ahh2,ahh3,energy,point
 DIGITS, 0, 8, 8, 8, 8, 8, 8, 8, 8, 8,  8,  8,  8, 8, 4
 save,CH3OH_MEP_MP2_1.dat,new
 
 Commands  initialized (802), CPU time= 0.00 sec, 659 directives.
 Default parameters read. Elapsed time= 0.11 sec

 Checking input...
 Passed
1


                                         ***  PROGRAM SYSTEM MOLPRO  ***
                                       Copyright, TTI GmbH Stuttgart, 2015
                                    Version 2020.1 linked Oct  6 2020 12:04:11


 **********************************************************************************************************************************
 LABEL *   Methanol Ground State Energy with CCSD(T)-F12 and cc-pVTZ-F12                 
  64 bit serial version                                                                  DATE: 08-Oct-24          TIME: 17:11:31  
 **********************************************************************************************************************************

 SHA1:             8c27446f6450a7499e38f603e13c65f775101d37
 **********************************************************************************************************************************

 Memory per process:       500 MW
 Total memory per node:    500 MW

 GA preallocation disabled
 GA check disabled

 Variable memory set to 500.0 MW

 SETTING RCO            =         1.42077677                                  
 SETTING ROH            =         0.96013932                                  
 SETTING RCH1           =         1.09171752                                  
 SETTING RCH2           =         1.08440070                                  
 SETTING RCH3           =         1.09171752                                  
 SETTING ACOH           =       108.12930637                                  
 SETTING AOCH1          =       111.65221523                                  
 SETTING AOCH2          =       107.18733878                                  
 SETTING AOCH3          =       111.65221523                                  
 SETTING AHH1           =        61.43364279                                  
 SETTING AHH2           =       180.00000000                                  
 SETTING AHH3           =       298.56635721                                  
 SETTING BASIS          =    CC-PVTZ-F12


 Recomputing integrals since basis changed


 Using spherical harmonics

 Library entry C      S cc-pVTZ-F12          selected for orbital group  1
 Library entry C      P cc-pVTZ-F12          selected for orbital group  1
 Library entry C      D cc-pVTZ-F12          selected for orbital group  1
 Library entry C      F cc-pVTZ-F12          selected for orbital group  1
 Library entry O      S cc-pVTZ-F12          selected for orbital group  2
 Library entry O      P cc-pVTZ-F12          selected for orbital group  2
 Library entry O      D cc-pVTZ-F12          selected for orbital group  2
 Library entry O      F cc-pVTZ-F12          selected for orbital group  2
 Library entry H      S cc-pVTZ-F12          selected for orbital group  3
 Library entry H      P cc-pVTZ-F12          selected for orbital group  3
 Library entry H      D cc-pVTZ-F12          selected for orbital group  3


 PROGRAM * SEWARD (Integral evaluation for generally contracted gaussian basis sets)     Author: Roland Lindh, 1990

 Geometry written to block  1 of record 700

 Orientation using atomic masses  
 Molecule type: Asymmetric top
 Symmetry elements: X
 Rotational constants:      23.9585538     24.8081650    128.7815061 GHz  (calculated with average atomic masses)

 Point group  Cs  



 ATOMIC COORDINATES

 NR  ATOM    CHARGE       X              Y              Z

   1  C       6.00    0.000000000    0.025184785   -1.376591958
   2  O       8.00    0.000000000   -0.122050067    1.304246909
   3  H       1.00    0.000000000    1.568722371    1.962530448
   4  H1      1.00    1.684053272    0.982441786   -2.086371493
   5  H3      1.00   -1.684053272    0.982441786   -2.086371493
   6  H2      1.00    0.000000000   -1.896372188   -2.088577063

 Bond lengths in Bohr (Angstrom)

 1-2  2.684878979  1-4  2.063047110  1-5  2.063047110  1-6  2.049220337  2-3  1.814400356
     ( 1.420776770)     ( 1.091717516)     ( 1.091717516)     ( 1.084400703)     ( 0.960139320)

 Bond angles

  1-2-3  108.12930637   2-1-4  111.65221523   2-1-5  111.65221523   2-1-6  107.18733878

  4-1-5  109.43105099   4-1-6  108.39459424   5-1-6  108.39459424

 NUCLEAR CHARGE:                   18
 NUMBER OF PRIMITIVE AOS:         228
 NUMBER OF SYMMETRY AOS:          206
 NUMBER OF CONTRACTIONS:          178   (  114A'  +   64A"  )
 NUMBER OF INNER CORE ORBITALS:     0   (    0A'  +    0A"  )
 NUMBER OF OUTER CORE ORBITALS:     2   (    2A'  +    0A"  )
 NUMBER OF VALENCE ORBITALS:       12   (    9A'  +    3A"  )


 NUCLEAR REPULSION ENERGY   40.34553012

 Eigenvalues of metric

         1 0.879E-04 0.183E-03 0.309E-03 0.460E-03 0.493E-03 0.560E-03 0.617E-03 0.621E-03
         2 0.323E-03 0.570E-03 0.686E-03 0.178E-02 0.339E-02 0.494E-02 0.643E-02 0.870E-02


 Contracted 2-electron integrals neglected if value below      1.0D-11
 AO integral compression algorithm  1   Integral accuracy      1.0D-11

     331.612 MB (compressed) written to integral file ( 53.5%)


 NUMBER OF SORTED TWO-ELECTRON INTEGRALS:   64554730.     BUFFER LENGTH:  32768
 NUMBER OF SEGMENTS:   5  SEGMENT LENGTH:   15997996      RECORD LENGTH: 524288

 Memory used in sort:      16.56 MW

 SORT1 READ    77497885. AND WROTE    63555371. INTEGRALS IN    184 RECORDS. CPU TIME:     1.84 SEC, REAL TIME:    36.37 SEC
 SORT2 READ    63555371. AND WROTE    64554730. INTEGRALS IN   1265 RECORDS. CPU TIME:     1.23 SEC, REAL TIME:    58.47 SEC

 FILE SIZES:   FILE 1:   362.5 MBYTE,  FILE 4:   771.8 MBYTE,   TOTAL:   1134.3 MBYTE

 OPERATOR DM      FOR CENTER  0  COORDINATES:    0.000000    0.000000    0.000000


 **********************************************************************************************************************************
 DATASETS  * FILE   NREC   LENGTH (MB)   RECORD NAMES
              1      19      311.86       500      610      700      900      950      970     1000      129      960     1100   
                                          VAR    BASINP    GEOM    SYMINP    ZMAT    AOBASIS   BASIS     P2S    ABASIS      S 
                                         1400     1410     1200     1210     1080     1600     1650     1300     1700   
                                           T        V       H0       H01     AOSYM     SMH    MOLCAS    ERIS     OPER   

 PROGRAMS   *        TOTAL       INT
 CPU TIMES  *         6.67      6.56
 REAL TIME  *       147.60 SEC
 DISK USED  *         1.13 GB
 **********************************************************************************************************************************


 PROGRAM * RHF-SCF (CLOSED SHELL)       Authors: W. Meyer, H.-J. Werner


 NUMBER OF ELECTRONS:       9+    9-
 CONVERGENCE THRESHOLDS:    1.00E-05 (Density)    1.00E-07 (Energy)
 MAX. NUMBER OF ITERATIONS:       60
 INTERPOLATION TYPE:            DIIS
 INTERPOLATION STEPS:              2 (START)      1 (STEP)
 LEVEL SHIFTS:                  0.00 (CLOSED)  0.00 (OPEN) 



 Orbital guess generated from atomic densities. Full valence occupancy:   11   3

 Molecular orbital dump at record        2100.2

 Initial occupancy:   7   2

 ITERATION    DDIFF          GRAD             ENERGY        2-EL.EN.            DIPOLE MOMENTS         DIIS   ORB.
    1      0.000D+00      0.000D+00      -115.06237638    164.484215    0.00000    0.90424   -0.47795    0    start
    2      0.000D+00      0.668D-02      -115.09072763    161.902327    0.00000    0.49651   -0.30366    1    diag
    3      0.653D-02      0.365D-02      -115.09821320    163.165425    0.00000    0.59986   -0.39688    2    diag
    4      0.222D-02      0.721D-03      -115.09874555    162.988863    0.00000    0.59475   -0.39232    3    diag
    5      0.593D-03      0.145D-03      -115.09877995    163.000336    0.00000    0.59077   -0.39714    4    diag
    6      0.165D-03      0.270D-04      -115.09878151    162.998114    0.00000    0.59092   -0.39793    5    diag
    7      0.475D-04      0.573D-05      -115.09878158    162.997731    0.00000    0.59074   -0.39820    6    diag
    8      0.119D-04      0.150D-05      -115.09878159    162.998083    0.00000    0.59072   -0.39823    7    diag
    9      0.236D-05      0.472D-06      -115.09878159    162.997917    0.00000    0.59070   -0.39824    0    orth

 Final occupancy:   7   2

 !RHF STATE  1.1 Energy              -115.098781585769
 Nuclear energy                        40.34553012
 One-electron energy                 -236.94327035
 Two-electron energy                   81.49895864
 Virial quotient                       -1.00101646
 !RHF STATE  1.1 Dipole moment          0.00000000     0.59070333    -0.39823778
 Dipole moment /Debye                   0.00000000     1.50131977    -1.01215317

 Orbital energies:

         1.1          2.1          3.1          4.1          5.1          6.1          7.1          8.1          9.1
    -20.556347   -11.269772    -1.356928    -0.926372    -0.690809    -0.594392    -0.504328     0.054650     0.065009

         1.2          2.2          3.2          4.2
     -0.621564    -0.452163     0.073796     0.181493


 HOMO      2.2    -0.452163 =     -12.3040eV
 LUMO      8.1     0.054650 =       1.4871eV
 LUMO-HOMO         0.506813 =      13.7911eV


 **********************************************************************************************************************************
 DATASETS  * FILE   NREC   LENGTH (MB)   RECORD NAMES
              1      19      311.86       500      610      700      900      950      970     1000      129      960     1100   
                                          VAR    BASINP    GEOM    SYMINP    ZMAT    AOBASIS   BASIS     P2S    ABASIS      S 
                                         1400     1410     1200     1210     1080     1600     1650     1300     1700   
                                           T        V       H0       H01     AOSYM     SMH    MOLCAS    ERIS     OPER   

              2       4        3.18       700     1000      520     2100   
                                         GEOM     BASIS   MCVARS     RHF  

 PROGRAMS   *        TOTAL    HF-SCF       INT
 CPU TIMES  *         9.78      3.11      6.56
 REAL TIME  *       153.17 SEC
 DISK USED  *         1.13 GB
 **********************************************************************************************************************************


 PROGRAM * MP2 (Closed-shell)     Authors: C. Hampel, H.-J. Werner, 1991, M. Deegan, P.J. Knowles, 1992

                                   MP2-F12 implementation by H.-J. Werner, 2007

                   Density fitting integral evaluation by F.R. Manby, 2003,2007, G. Knizia, 2010


 Basis set AUG-CC-PVTZ/JKFIT generated.  Number of basis functions:   392 
 Basis set CC-PVTZ-F12/OPTRI generated.  Number of basis functions:   314 
 Basis set AUG-CC-PVTZ/MP2FIT generated. Number of basis functions:   396 

 Convergence thresholds:  THRVAR = 1.00D-08  THRDEN = 1.00D-06

 Number of core orbitals:           2 (   2   0 )
 Number of closed-shell orbitals:   7 (   5   2 )
 Number of external orbitals:     169 ( 107  62 )

 Molecular orbitals read from record     2100.2  Type=RHF/CANONICAL (state 1.1)

 MP2-F12 correlation treatment (H.-J. Werner, 2006)
 ==================================================

 Using MP2-F12 with ansatz 3C(FIX)

 Using projected zeroth-order Hamiltonian (+Z)

 FOCKRIB=T FOCKRIC=T FOCKRIP=T CABSP=T CABSA=T CABSK=T CABSF=T GBC=F EBC=F DMAT=T NOFIK=T NOPAO=1 SOLVE=-1  USEPAO=0
 EXCH_A= T EXCH_B= F EXCH_C= F EXCH_P= F

 Geminal basis:    OPTFULL  GEM_TYPE=SLATER  BETA=1.0  NGEM=6

 Optimizing Gaussian exponents for each gem_beta

 Geminal optimization for beta= 1.0000
 Weight function:   m=0, omega= 1.4646

 Augmented Hessian optimization of geminal fit. Trust ratio= 0.40000
 Convergence reached after   2 iterations. Final gradient= 8.66D-16, Step= 4.23D-06, Delta= 1.28D-09

 Alpha:                 0.19532     0.81920     2.85917     9.50073    35.69989   197.79328
 Coeff:                 0.27070     0.30552     0.18297     0.10986     0.06810     0.04224


 Symmetry turned off. Reference energy:       -115.098781585768

 All pairs explicitly correlated. Number of r12-pairs:           28

 Excluding core orbitals from MO domains

 AO(A)-basis ORBITAL           loaded. Number of functions:     178
 RI(R)-basis CC-PVTZ-F12/OPTRI loaded. Number of functions:     314
 DF-basis AUG-CC-PVTZ/JKFIT    loaded. Number of functions:     392

 Screening thresholds:   THRAO=  1.00D-10  THRMO=  1.00D-09  THRPROD=  1.00D-09
                         THRSW=  1.00D-05  THROV=  1.00D-12  THRAOF12= 1.00D-08

 CPU time for Fock operators                      5.42 sec

 Construction of ABS:
 Smallest eigenvalue of S          4.36E-04  (threshold= 1.00E-08)
 Ratio eigmin/eigmax               5.56E-05  (threshold= 1.00E-09)
 Smallest eigenvalue of S kept     4.36E-04  (threshold= 4.36E-04, 0 functions deleted, 314 kept)

 Construction of CABS:
 Smallest eigenvalue of S          7.26E-07  (threshold= 1.00E-08)
 Ratio eigmin/eigmax               7.26E-07  (threshold= 1.00E-09)
 Smallest eigenvalue of S kept     7.26E-07  (threshold= 7.26E-07, 0 functions deleted, 314 kept)

 CPU time for CABS singles                        0.04 sec

 CABS-singles contribution of  -0.00135364 patched into reference energy.
 New reference energy        -115.10013522

 AO(A)-basis ORBITAL           loaded. Number of functions:     178
 RI(R)-basis CC-PVTZ-F12/OPTRI loaded. Number of functions:     314
 DF-basis AUG-CC-PVTZ/MP2FIT   loaded. Number of functions:     396

 Screening thresholds:   THRAO=  1.00D-10  THRMO=  1.00D-09  THRPROD=  1.00D-09
                         THRSW=  1.00D-05  THROV=  1.00D-12  THRAOF12= 1.00D-08

 CPU time for 3-index integral evaluation         3.36 sec
 CPU time for first  half transformation          0.29 sec ( 8514.0 MFLOP/sec)
 CPU time for second half transformation          0.01 sec ( 6217.0 MFLOP/sec)
 CPU time for sorting                             0.02 sec
 CPU time for fitting                             0.02 sec (56971.3 MFLOP/sec)
 CPU time for tilde quantities                    0.04 sec (37761.3 MFLOP/sec)
 CPU time for assembly                            0.20 sec (61768.0 MFLOP/sec)
 CPU time for tranop_f12                          0.25 sec (63440.9 MFLOP/sec)
 CPU time for f12 integrals (total)               7.10 sec, Elapsed time:      7.47 sec
 CPU time for f12 matrices (total)                0.10 sec, Elapsed time:      0.13 sec

 Diagonal F12 approximation with fixed coefficients:  TSING= 0.500,  TTRIP= 0.250 (scaled by -1/beta)

 DF-MP2-F12 energy corrections:
 ==============================
 Approx.                                    Singlet             Triplet             Total
 DF-MP2-F12/3*C(DX,FIX)                -0.038287398304     -0.004212618413     -0.042500016717
 DF-MP2-F12/3*C(FIX)                   -0.036088583100     -0.003930876478     -0.040019459578
 DF-MP2-F12/3C(FIX)                    -0.036031288467     -0.004065850559     -0.040097139026

 DF-MP2-F12 correlation energies:
 ================================
 Approx.                                    Singlet             Triplet             Ecorr            Total Energy
 DF-MP2                                -0.291095149142     -0.152363153815     -0.443458302958   -115.543593526062
 DF-MP2-F12/3*C(DX,FIX)                -0.329382547447     -0.156575772228     -0.485958319675   -115.586093542779
 DF-MP2-F12/3*C(FIX)                   -0.327183732243     -0.156294030294     -0.483477762536   -115.583612985641
 DF-MP2-F12/3C(FIX)                    -0.327126437610     -0.156429004374     -0.483555441984   -115.583690665088

 SCS-DF-MP2 energies (F_SING= 1.20000  F_TRIP= 0.62222  F_PARALLEL= 0.33333):
 ============================================================================
 SCS-DF-MP2                            -0.444117919123   -115.544253142227
 SCS-DF-MP2-F12/3*C(DX,FIX)            -0.492683981878   -115.592819204982
 SCS-DF-MP2-F12/3*C(FIX)               -0.489870097540   -115.590005320645
 SCS-DF-MP2-F12/3C(FIX)                -0.489885327853   -115.590020550958

 Symmetry restored.
 Symmetry transformation completed.

 Number of N-1 electron functions:               7
 Number of N-2 electron functions:              28
 Number of singly external CSFs:               659
 Number of doubly external CSFs:            355020
 Total number of CSFs:                      355680

 Length of J-op  integral file:             103.49 MB
 Length of K-op  integral file:             127.95 MB

 Integral transformation finished. Total CPU:   0.48 sec, npass=  1  Memory used:   0.67 MW

 ITER.      SQ.NORM     CORR.ENERGY   TOTAL ENERGY   ENERGY CHANGE     VAR   MIC
   1      1.00000000    -0.44352470  -115.54365993    -0.44352470  0.00D+00   0
   2      1.11473533    -0.44352470  -115.54365993     0.00000000 -0.64D-15   0

 Solving MP2-F12 equations

   1      1.11469902    -0.48286380  -115.58299902    -0.03933909 -0.37D-04   0
   2      1.11469902    -0.48362044  -115.58375566    -0.00075664  0.18D-18   0
   3      1.11469902    -0.48362044  -115.58375566     0.00000000  0.57D-19   0

 CPU TIME FOR ITERATIVE MP2:    0.04 SEC


 MP2-F12 energy corrections:
 ===========================
 Approx.                                    Singlet             Triplet             Total
 MP2-F12/3*C(DX,FIX)                   -0.038287398304     -0.004212618413     -0.042500016717
 MP2-F12/3*C(FIX)                      -0.036088583100     -0.003930876478     -0.040019459578
 MP2-F12/3C(FIX)                       -0.036028587998     -0.004067147001     -0.040095734999

 MP2-F12 correlation energies:
 =============================
 Approx.                                    Singlet             Triplet             Ecorr            Total Energy
 MP2                                   -0.291278462638     -0.152246241078     -0.443524703716   -115.543659926820
 MP2-F12/3*C(DX,FIX)                   -0.329565860942     -0.156458859491     -0.486024720433   -115.586159943538
 MP2-F12/3*C(FIX)                      -0.327367045738     -0.156177117556     -0.483544163294   -115.583679386399
 MP2-F12/3C(FIX)                       -0.327307050637     -0.156313388078     -0.483620438715   -115.583755661820

 SCS-MP2 energies (F_SING= 1.20000  F_TRIP= 0.62222  F_PARALLEL= 0.33333):
 =========================================================================
 SCS-MP2                               -0.444265149614   -115.544400372719
 SCS-MP2-F12/3*C(DX,FIX)               -0.492831212369   -115.592966435474
 SCS-MP2-F12/3*C(FIX)                  -0.490017328032   -115.590152551136
 SCS-MP2-F12/3C(FIX)                   -0.490030124457   -115.590165347562


  Reference energy                   -115.098781585768
  F12 singles correction               -0.001353637336

 F12 singles corrections added to reference energy

  New reference energy               -115.100135223105

  F12/3C(F) singlet correction         -0.036028587998
  F12/3C(F) triplet correction         -0.004067147001
  F12/3C(F) total correction           -0.040095734999
  MP2-F12/3C(F) singlet pair energy    -0.327307050637
  MP2-F12/3C(F) triplet pair energy    -0.156313388078
  MP2-F12/3C(F) correlation energy     -0.483620438715

 !MP2-F12/3C(F) total energy         -115.583755661820


 **********************************************************************************************************************************
 DATASETS  * FILE   NREC   LENGTH (MB)   RECORD NAMES
              1      20      317.60       500      610      700      900      950      970     1000      129      960     1100   
                                          VAR    BASINP    GEOM    SYMINP    ZMAT    AOBASIS   BASIS     P2S    ABASIS      S 
                                         1400     1410     1200     1210     1080     1600     1650     1300     1700     1380   
                                           T        V       H0       H01     AOSYM     SMH    MOLCAS    ERIS     OPER     JKOP   

              2       7        3.55       700     1000      520     2100     7360     7350     7000   
                                         GEOM     BASIS   MCVARS     RHF    F12ABS    EF12   

 PROGRAMS   *        TOTAL   MP2-F12    HF-SCF       INT
 CPU TIMES  *        23.15     13.36      3.11      6.56
 REAL TIME  *       167.89 SEC
 DISK USED  *         1.13 GB
 **********************************************************************************************************************************


 PROGRAM * CCSD (Closed-shell coupled cluster)     Authors: C. Hampel, H.-J. Werner, 1991, M. Deegan, P.J. Knowles, 1992

                                  CCSD-F12 implementation by  H.-J. Werner, 2007

                   Density fitting integral evaluation by F.R. Manby, 2003,2007, G. Knizia, 2010



 Convergence thresholds:  THRVAR = 1.00D-08  THRDEN = 1.00D-06

 CCSD(T)     terms to be evaluated (factor= 1.000)


 Number of core orbitals:           2 (   2   0 )
 Number of closed-shell orbitals:   7 (   5   2 )
 Number of external orbitals:     169 ( 107  62 )

 Molecular orbitals read from record     2100.2  Type=RHF/CANONICAL (state 1.1)

 MP2-F12 correlation treatment (H.-J. Werner, 2006)
 ==================================================

 Using MP2-F12 with ansatz 3C(FIX)

 Using projected zeroth-order Hamiltonian (+Z)

 FOCKRIB=T FOCKRIC=T FOCKRIP=T CABSP=T CABSA=T CABSK=T CABSF=T GBC=F EBC=F DMAT=T NOFIK=T NOPAO=1 SOLVE=-1  USEPAO=0
 EXCH_A= T EXCH_B= F EXCH_C= F EXCH_P= F

 Geminal basis:    OPTFULL  GEM_TYPE=SLATER  BETA=1.0  NGEM=6

 Optimizing Gaussian exponents for each gem_beta

 Geminal optimization for beta= 1.0000
 Weight function:   m=0, omega= 1.4646

 Augmented Hessian optimization of geminal fit. Trust ratio= 0.40000
 Convergence reached after   2 iterations. Final gradient= 8.66D-16, Step= 4.23D-06, Delta= 1.28D-09

 Alpha:                 0.19532     0.81920     2.85917     9.50073    35.69989   197.79328
 Coeff:                 0.27070     0.30552     0.18297     0.10986     0.06810     0.04224


 Symmetry turned off. Reference energy:       -115.098781585768

 All pairs explicitly correlated. Number of r12-pairs:           28

 Excluding core orbitals from MO domains

 AO(A)-basis ORBITAL           loaded. Number of functions:     178
 RI(R)-basis CC-PVTZ-F12/OPTRI loaded. Number of functions:     314
 DF-basis AUG-CC-PVTZ/JKFIT    loaded. Number of functions:     392

 Screening thresholds:   THRAO=  1.00D-10  THRMO=  1.00D-09  THRPROD=  1.00D-09
                         THRSW=  1.00D-05  THROV=  1.00D-12  THRAOF12= 1.00D-08

 CPU time for Fock operators                      5.43 sec

 Construction of ABS:
 Smallest eigenvalue of S          4.36E-04  (threshold= 1.00E-08)
 Ratio eigmin/eigmax               5.56E-05  (threshold= 1.00E-09)
 Smallest eigenvalue of S kept     4.36E-04  (threshold= 4.36E-04, 0 functions deleted, 314 kept)

 Construction of CABS:
 Smallest eigenvalue of S          7.26E-07  (threshold= 1.00E-08)
 Ratio eigmin/eigmax               7.26E-07  (threshold= 1.00E-09)
 Smallest eigenvalue of S kept     7.26E-07  (threshold= 7.26E-07, 0 functions deleted, 314 kept)

 CPU time for CABS singles                        0.04 sec

 CABS-singles contribution of  -0.00135364 patched into reference energy.
 New reference energy        -115.10013522

 AO(A)-basis ORBITAL           loaded. Number of functions:     178
 RI(R)-basis CC-PVTZ-F12/OPTRI loaded. Number of functions:     314
 DF-basis AUG-CC-PVTZ/MP2FIT   loaded. Number of functions:     396

 Screening thresholds:   THRAO=  1.00D-10  THRMO=  1.00D-09  THRPROD=  1.00D-09
                         THRSW=  1.00D-05  THROV=  1.00D-12  THRAOF12= 1.00D-08

 CPU time for 3-index integral evaluation         3.45 sec
 CPU time for first  half transformation          0.29 sec ( 8514.0 MFLOP/sec)
 CPU time for second half transformation          0.04 sec ( 1554.3 MFLOP/sec)
 CPU time for fitting                             0.02 sec (56971.3 MFLOP/sec)
 CPU time for tilde quantities                    0.03 sec (50348.4 MFLOP/sec)
 CPU time for assembly                            0.20 sec (61768.0 MFLOP/sec)
 CPU time for tranop_f12                          0.26 sec (61000.9 MFLOP/sec)
 CPU time for f12 integrals (total)               7.21 sec, Elapsed time:      7.55 sec
 CPU time for f12 matrices (total)                0.10 sec, Elapsed time:      0.14 sec

 Diagonal F12 approximation with fixed coefficients:  TSING= 0.500,  TTRIP= 0.250 (scaled by -1/beta)

 DF-MP2-F12 energy corrections:
 ==============================
 Approx.                                    Singlet             Triplet             Total
 DF-MP2-F12/3*C(DX,FIX)                -0.038287398304     -0.004212618413     -0.042500016717
 DF-MP2-F12/3*C(FIX)                   -0.036088583100     -0.003930876478     -0.040019459578
 DF-MP2-F12/3C(FIX)                    -0.036031288467     -0.004065850559     -0.040097139026

 DF-MP2-F12 correlation energies:
 ================================
 Approx.                                    Singlet             Triplet             Ecorr            Total Energy
 DF-MP2                                -0.291095149142     -0.152363153815     -0.443458302958   -115.543593526062
 DF-MP2-F12/3*C(DX,FIX)                -0.329382547447     -0.156575772228     -0.485958319675   -115.586093542779
 DF-MP2-F12/3*C(FIX)                   -0.327183732243     -0.156294030294     -0.483477762536   -115.583612985641
 DF-MP2-F12/3C(FIX)                    -0.327126437610     -0.156429004374     -0.483555441984   -115.583690665088

 SCS-DF-MP2 energies (F_SING= 1.20000  F_TRIP= 0.62222  F_PARALLEL= 0.33333):
 ============================================================================
 SCS-DF-MP2                            -0.444117919123   -115.544253142227
 SCS-DF-MP2-F12/3*C(DX,FIX)            -0.492683981878   -115.592819204982
 SCS-DF-MP2-F12/3*C(FIX)               -0.489870097540   -115.590005320645
 SCS-DF-MP2-F12/3C(FIX)                -0.489885327853   -115.590020550958

 Symmetry restored.
 Symmetry transformation completed.

 Number of N-1 electron functions:               7
 Number of N-2 electron functions:              28
 Number of singly external CSFs:               659
 Number of doubly external CSFs:            355020
 Total number of CSFs:                      355680

 Length of J-op  integral file:             103.62 MB
 Length of K-op  integral file:             127.95 MB
 Length of 3-ext integral record:             0.00 MB

 Memory could be reduced to 24.20 Mwords without degradation in triples

 Integral transformation finished. Total CPU:   1.24 sec, npass=  1  Memory used:   7.45 MW

 Reference energy:                   -115.10013522

 Adding F12 terms to K(Cij), methodcc=6,  factor= 1.0

 ITER.      SQ.NORM     CORR.ENERGY   TOTAL ENERGY   ENERGY CHANGE        DEN1      VAR(S)    VAR(P)  DIIS     TIME  TIME/IT
   1      1.11762339    -0.45285840  -115.55299363    -0.00933370     0.00166797  0.15D-02  0.19D-02  1  1    14.97     1.10
   2      1.12503320    -0.45322023  -115.55335545    -0.00036183    -0.00904662  0.24D-04  0.23D-03  2  2    15.84     1.11
   3      1.12776291    -0.45339766  -115.55353288    -0.00017742    -0.00186521  0.15D-04  0.13D-04  3  3    16.68     1.06
   4      1.12871027    -0.45341554  -115.55355076    -0.00001788    -0.00060021  0.86D-06  0.12D-05  4  4    17.52     1.03
   5      1.12886586    -0.45341709  -115.55355232    -0.00000156    -0.00003791  0.23D-06  0.10D-06  5  5    18.38     1.01
   6      1.12890845    -0.45341474  -115.55354996     0.00000235    -0.00000423  0.36D-07  0.96D-08  6  6    19.24     1.00
   7      1.12891957    -0.45341386  -115.55354909     0.00000087    -0.00000298  0.39D-08  0.14D-08  6  1    20.09     0.99
   8      1.12892137    -0.45341393  -115.55354915    -0.00000006     0.00000034  0.67D-09  0.20D-09  6  3    20.96     0.99

 Norm of t1 vector:      0.05001690      S-energy:    -0.00000037      T1 diagnostic:  0.00945231
                                                                       D1 diagnostic:  0.02004152

 Adding energy correction from Wij-K(Fij), methodcc=6  factor= 1.0

  CCSD correlation energy              -0.453413925329
  MP2-F12 correction (uncoupled)       -0.038545479563
  C*T doubles correction               -0.001164886646
  f12b correction                       0.007098711564


 Total CPU time for triples:     11.84 sec


 RESULTS
 =======

  Reference energy                   -115.098781585768
  F12 singles correction               -0.001353637336

 F12 singles corrections added to reference energy

  New reference energy               -115.100135223105

  F12a singlet correction              -0.035791809643
  F12a triplet correction              -0.003918556566
  F12a total correction                -0.039710366209

 F12a corrections for ansatz F12/3C(FIX) added to CCSD energy

  CCSD-F12a singlet pair energy        -0.351209154090
  CCSD-F12a triplet pair energy        -0.141914770948
  CCSD-F12a correlation energy         -0.493124291538

  Triples (T) contribution             -0.016014442599
  Total correlation energy             -0.509138734136

  CCSD-F12a total energy             -115.593259514642
  CCSD[T]-F12a energy                -115.609827149127
  CCSD-T-F12a energy                 -115.609030203050
 !CCSD(T)-F12a total energy          -115.609273957241

 F12b corrections for ansatz F12/3C(FIX) added to CCSD(T)-F12a energy

  CCSD-F12b singlet pair energy        -0.344572512371
  CCSD-F12b triplet pair energy        -0.141452701103
  CCSD-F12b correlation energy         -0.486025579973

  Triples (T) contribution             -0.016014442599
  Total correlation energy             -0.502040022572

  CCSD-F12b total energy             -115.586160803078
  CCSD[T]-F12b energy                -115.602728437563
  CCSD-T-F12b energy                 -115.601931491485
 !CCSD(T)-F12b total energy          -115.602175245677

 Timing summary (sec):

 STEP                 CPU(USER)    SYS     CPU(TOT)    WALL
 Transformation          1.25      0.31      1.56      1.75
 CCSD iterations         6.87      0.75      7.62      7.94
 Triples                11.84      0.45     12.29     12.33
 MP2-F12                12.85      0.53     13.38     13.53
 F12b energy             0.67      0.07      0.74      0.74

 Program statistics:

 Available memory in ccsd:               499999650
 Min. memory needed in ccsd:               1149135
 Max. memory used in ccsd:                 1443104
 Max. memory used in cckext:               1888566 ( 9 integral passes)



 **********************************************************************************************************************************
 DATASETS  * FILE   NREC   LENGTH (MB)   RECORD NAMES
              1      20      386.17       500      610      700      900      950      970     1000      129      960     1100   
                                          VAR    BASINP    GEOM    SYMINP    ZMAT    AOBASIS   BASIS     P2S    ABASIS      S 
                                         1400     1410     1200     1210     1080     1600     1650     1300     1700     1380   
                                           T        V       H0       H01     AOSYM     SMH    MOLCAS    ERIS     OPER     JKOP   

              2       7        3.55       700     1000      520     2100     7360     7350     7000   
                                         GEOM     BASIS   MCVARS     RHF    F12ABS    EF12   

 PROGRAMS   *        TOTAL   CCSD(T)   MP2-F12    HF-SCF       INT
 CPU TIMES  *        56.66     33.51     13.36      3.11      6.56
 REAL TIME  *       204.30 SEC
 DISK USED  *         1.13 GB
 **********************************************************************************************************************************
 SETTING XXX            =    "MMM"
 SETTING POINT          =         1.00000000                                  

 *** ### CH3OH


 XXX       RCO          ROH          RCH1         RCH2         RCH3           ACOH           AOCH1          AOCH2          AOCH3         AHH1           AHH2           AHH3            ENERGY      POINT
 "MMM"   1.42077677   0.96013932   1.09171752   1.08440070   1.09171752   108.12930637   111.65221523   107.18733878   111.65221523   61.43364279   180.00000000   298.56635721   -115.60927396   1.0000
                                                  

 CCSD(T)-F12/cc-pVTZ-F12 energy=   -115.602175245677

     CCSD(T)-F12         MP2-F12          HF-SCF
   -115.60217525   -115.58375566   -115.09878159
 **********************************************************************************************************************************
 Molpro calculation terminated
