
 Primary working directories    : /tmpdir/job/2955637.undefined/molpro.uuvdx1f5eO
 Secondary working directories  : /tmpdir/job/2955637.undefined/molpro.uuvdx1f5eO
 Wavefunction directory         : /home/zcaposm/wfu/
 Main file repository           : /tmpdir/job/2955637.undefined/molpro.uuvdx1f5eO/

 id        : uclcc

 Nodes                         nprocs
 node-d00a-090.myriad.ucl.ac.uk    1

 Using customized tuning parameters: mindgm=1; mindgv=20; mindgc=4; mindgr=1; noblas=0; minvec=7
 default implementation of scratch files=df  


 Variables initialized (945), CPU time= 0.00 sec
 ***,Methanol Ground State Energy with CCSD(T)-F12 and cc-pVTZ-F12
 memory,500,m;
 
 geometry={angstrom
 c
 o , 1, rco
 h , 2, roh, 1, acoh
 h1, 1, rch1, 2, aoch1  3  ahh1
 h2, 1, rch2, 2, aoch2, 3, ahh2
 h3, 1, rch3, 2, aoch3, 3, ahh3
 }
 
                                                ! Specify the initial values of the internal coordinates (in Angstroms and degrees)
 
 rco= 1.42077677
 roh= 0.96013932
 rch1= 1.091717515605
 rch2= 1.08440070258
 rch3= 1.091717515605
 acoh= 108.12930637
 aoch1= 110.6522152299
 aoch2= 107.18733878260001
 aoch3= 111.6522152299
 ahh1=61.43364279
 ahh2=180.0
 ahh3=298.56635721
 
                                                                                 ! Use the cc-pVTZ-F12 basis set
 basis=cc-pVTZ-F12
 
 hf
 
                                                                                 ! Use explicitly correlated F12 methods
                                                                            ! First, MP2-F12 (useful for initial electronic energy)
 {mp2-f12}
 
                                                                        ! If desired, perform CCSD(T)-F12 for more accurate results
 {ccsd(t)-f12}
 
                                                                                 ! Output the energy
 xxx = "mmm"
 point = 69
 text ### CH3OH
 table,xxx,rco,roh,rch1,rch2,rch3,acoh,aoch1,aoch2,aoch3,ahh1,ahh2,ahh3,energy,point
 DIGITS, 0, 8, 8, 8, 8, 8, 8, 8, 8, 8,  8,  8,  8, 8, 4
 save,CH3OH_MEP_MP2_69.dat,new
 
 Commands  initialized (802), CPU time= 0.01 sec, 659 directives.
 Default parameters read. Elapsed time= 0.11 sec

 Checking input...
 Passed
1


                                         ***  PROGRAM SYSTEM MOLPRO  ***
                                       Copyright, TTI GmbH Stuttgart, 2015
                                    Version 2020.1 linked Oct  6 2020 12:04:11


 **********************************************************************************************************************************
 LABEL *   Methanol Ground State Energy with CCSD(T)-F12 and cc-pVTZ-F12                 
  64 bit serial version                                                                  DATE: 08-Oct-24          TIME: 17:30:38  
 **********************************************************************************************************************************

 SHA1:             8c27446f6450a7499e38f603e13c65f775101d37
 **********************************************************************************************************************************

 Memory per process:       500 MW
 Total memory per node:    500 MW

 GA preallocation disabled
 GA check disabled

 Variable memory set to 500.0 MW

 SETTING RCO            =         1.42077677                                  
 SETTING ROH            =         0.96013932                                  
 SETTING RCH1           =         1.09171752                                  
 SETTING RCH2           =         1.08440070                                  
 SETTING RCH3           =         1.09171752                                  
 SETTING ACOH           =       108.12930637                                  
 SETTING AOCH1          =       110.65221523                                  
 SETTING AOCH2          =       107.18733878                                  
 SETTING AOCH3          =       111.65221523                                  
 SETTING AHH1           =        61.43364279                                  
 SETTING AHH2           =       180.00000000                                  
 SETTING AHH3           =       298.56635721                                  
 SETTING BASIS          =    CC-PVTZ-F12


 Recomputing integrals since basis changed


 Using spherical harmonics

 Library entry C      S cc-pVTZ-F12          selected for orbital group  1
 Library entry C      P cc-pVTZ-F12          selected for orbital group  1
 Library entry C      D cc-pVTZ-F12          selected for orbital group  1
 Library entry C      F cc-pVTZ-F12          selected for orbital group  1
 Library entry O      S cc-pVTZ-F12          selected for orbital group  2
 Library entry O      P cc-pVTZ-F12          selected for orbital group  2
 Library entry O      D cc-pVTZ-F12          selected for orbital group  2
 Library entry O      F cc-pVTZ-F12          selected for orbital group  2
 Library entry H      S cc-pVTZ-F12          selected for orbital group  3
 Library entry H      P cc-pVTZ-F12          selected for orbital group  3
 Library entry H      D cc-pVTZ-F12          selected for orbital group  3


 PROGRAM * SEWARD (Integral evaluation for generally contracted gaussian basis sets)     Author: Roland Lindh, 1990

 Geometry written to block  1 of record 700

 Orientation using atomic masses  
 Molecule type: Asymmetric top
 Rotational constants:      24.0007778     24.8432017    128.3465280 GHz  (calculated with average atomic masses)

 Point group  C1  



 ATOMIC COORDINATES

 NR  ATOM    CHARGE       X              Y              Z

   1  C       6.00    0.000216236    0.025626504   -1.377646802
   2  O       8.00   -0.000179177   -0.122737382    1.303129790
   3  H       1.00   -0.012967937    1.567711030    1.962120887
   4  H1      1.00    1.688939904    0.999965174   -2.052213260
   5  H2      1.00    0.014730693   -1.895577494   -2.090436053
   6  H3      1.00   -1.690435273    0.970781359   -2.087958813

 Bond lengths in Bohr (Angstrom)

 1-2  2.684878979  1-4  2.063047110  1-5  2.049220337  1-6  2.063047110  2-3  1.814400356
     ( 1.420776770)     ( 1.091717516)     ( 1.084400703)     ( 1.091717516)     ( 0.960139320)

 Bond angles

  1-2-3  108.12930637   2-1-4  110.65221523   2-1-5  107.18733878   2-1-6  111.65221523

  4-1-5  108.85936639   4-1-6  109.98991535   5-1-6  108.39459424

 NUCLEAR CHARGE:                   18
 NUMBER OF PRIMITIVE AOS:         228
 NUMBER OF SYMMETRY AOS:          206
 NUMBER OF CONTRACTIONS:          178   (  178A   )
 NUMBER OF INNER CORE ORBITALS:     0   (    0A   )
 NUMBER OF OUTER CORE ORBITALS:     2   (    2A   )
 NUMBER OF VALENCE ORBITALS:       12   (   12A   )


 NUCLEAR REPULSION ENERGY   40.35690045

 Eigenvalues of metric

         1 0.880E-04 0.184E-03 0.309E-03 0.323E-03 0.460E-03 0.493E-03 0.560E-03 0.570E-03


 Contracted 2-electron integrals neglected if value below      1.0D-11
 AO integral compression algorithm  1   Integral accuracy      1.0D-11

     607.650 MB (compressed) written to integral file ( 50.9%)


 NUMBER OF SORTED TWO-ELECTRON INTEGRALS:  126906346.     BUFFER LENGTH:  32768
 NUMBER OF SEGMENTS:   8  SEGMENT LENGTH:   15999503      RECORD LENGTH: 524288

 Memory used in sort:      16.56 MW

 SORT1 READ   149034713. AND WROTE   124755767. INTEGRALS IN    360 RECORDS. CPU TIME:     3.28 SEC, REAL TIME:    63.15 SEC
 SORT2 READ   124755767. AND WROTE   126906346. INTEGRALS IN   2318 RECORDS. CPU TIME:     2.07 SEC, REAL TIME:   124.20 SEC

 FILE SIZES:   FILE 1:   638.9 MBYTE,  FILE 4:  1510.0 MBYTE,   TOTAL:   2148.8 MBYTE

 OPERATOR DM      FOR CENTER  0  COORDINATES:    0.000000    0.000000    0.000000


 **********************************************************************************************************************************
 DATASETS  * FILE   NREC   LENGTH (MB)   RECORD NAMES
              1      19      560.93       500      610      700      900      950      970     1000      129      960     1100   
                                          VAR    BASINP    GEOM    SYMINP    ZMAT    AOBASIS   BASIS     P2S    ABASIS      S 
                                         1400     1410     1200     1210     1080     1600     1650     1300     1700   
                                           T        V       H0       H01     AOSYM     SMH    MOLCAS    ERIS     OPER   

 PROGRAMS   *        TOTAL       INT
 CPU TIMES  *        10.11     10.00
 REAL TIME  *       223.52 SEC
 DISK USED  *         2.15 GB
 **********************************************************************************************************************************


 PROGRAM * RHF-SCF (CLOSED SHELL)       Authors: W. Meyer, H.-J. Werner


 NUMBER OF ELECTRONS:       9+    9-    SPACE SYMMETRY=1    SPIN SYMMETRY: Singlet 
 CONVERGENCE THRESHOLDS:    1.00E-05 (Density)    1.00E-07 (Energy)
 MAX. NUMBER OF ITERATIONS:       60
 INTERPOLATION TYPE:            DIIS
 INTERPOLATION STEPS:              2 (START)      1 (STEP)
 LEVEL SHIFTS:                  0.00 (CLOSED)  0.00 (OPEN) 



 Orbital guess generated from atomic densities. Full valence occupancy:   14

 Molecular orbital dump at record        2100.2

 Initial occupancy:   9

 ITERATION    DDIFF          GRAD             ENERGY        2-EL.EN.            DIPOLE MOMENTS         DIIS   ORB.
    1      0.000D+00      0.000D+00      -115.06224810    164.518872   -0.00807    0.90347   -0.47743    0    start
    2      0.000D+00      0.507D-02      -115.09065151    161.926033   -0.00359    0.49601   -0.30348    1    diag
    3      0.481D-02      0.278D-02      -115.09818407    163.193263   -0.00483    0.59927   -0.39692    2    diag
    4      0.164D-02      0.545D-03      -115.09871609    163.017151   -0.00479    0.59423   -0.39256    3    diag
    5      0.436D-03      0.110D-03      -115.09875045    163.028630   -0.00477    0.59024   -0.39746    4    diag
    6      0.121D-03      0.205D-04      -115.09875202    163.026387   -0.00477    0.59038   -0.39826    5    diag
    7      0.350D-04      0.435D-05      -115.09875209    163.026019   -0.00477    0.59020   -0.39855    6    diag
    8      0.881D-05      0.114D-05      -115.09875209    163.026358   -0.00477    0.59019   -0.39856    0    orth

 Final occupancy:   9

 !RHF STATE  1.1 Energy              -115.098752092650
 Nuclear energy                        40.35690045
 One-electron energy                 -236.96883153
 Two-electron energy                   81.51317899
 Virial quotient                       -1.00099888
 !RHF STATE  1.1 Dipole moment         -0.00476853     0.59019386    -0.39856089
 Dipole moment /Debye                  -0.01211960     1.50002491    -1.01297438

 Orbital energies:

         1.1          2.1          3.1          4.1          5.1          6.1          7.1          8.1          9.1         10.1
    -20.555749   -11.269771    -1.356717    -0.926065    -0.690217    -0.622454    -0.594367    -0.503926    -0.451971     0.054719

        11.1
      0.065057


 HOMO      9.1    -0.451971 =     -12.2988eV
 LUMO     10.1     0.054719 =       1.4890eV
 LUMO-HOMO         0.506690 =      13.7877eV


 **********************************************************************************************************************************
 DATASETS  * FILE   NREC   LENGTH (MB)   RECORD NAMES
              1      19      560.93       500      610      700      900      950      970     1000      129      960     1100   
                                          VAR    BASINP    GEOM    SYMINP    ZMAT    AOBASIS   BASIS     P2S    ABASIS      S 
                                         1400     1410     1200     1210     1080     1600     1650     1300     1700   
                                           T        V       H0       H01     AOSYM     SMH    MOLCAS    ERIS     OPER   

              2       4        3.48       700     1000      520     2100   
                                         GEOM     BASIS   MCVARS     RHF  

 PROGRAMS   *        TOTAL    HF-SCF       INT
 CPU TIMES  *        18.26      8.15     10.00
 REAL TIME  *       240.59 SEC
 DISK USED  *         2.15 GB
 **********************************************************************************************************************************


 PROGRAM * MP2 (Closed-shell)     Authors: C. Hampel, H.-J. Werner, 1991, M. Deegan, P.J. Knowles, 1992

                                   MP2-F12 implementation by H.-J. Werner, 2007

                   Density fitting integral evaluation by F.R. Manby, 2003,2007, G. Knizia, 2010


 Basis set AUG-CC-PVTZ/JKFIT generated.  Number of basis functions:   392 
 Basis set CC-PVTZ-F12/OPTRI generated.  Number of basis functions:   314 
 Basis set AUG-CC-PVTZ/MP2FIT generated. Number of basis functions:   396 

 Convergence thresholds:  THRVAR = 1.00D-08  THRDEN = 1.00D-06

 Number of core orbitals:           2 (   2 )
 Number of closed-shell orbitals:   7 (   7 )
 Number of external orbitals:     169 ( 169 )

 Molecular orbitals read from record     2100.2  Type=RHF/CANONICAL (state 1.1)

 MP2-F12 correlation treatment (H.-J. Werner, 2006)
 ==================================================

 Using MP2-F12 with ansatz 3C(FIX)

 Using projected zeroth-order Hamiltonian (+Z)

 FOCKRIB=T FOCKRIC=T FOCKRIP=T CABSP=T CABSA=T CABSK=T CABSF=T GBC=F EBC=F DMAT=T NOFIK=T NOPAO=1 SOLVE=-1  USEPAO=0
 EXCH_A= T EXCH_B= F EXCH_C= F EXCH_P= F

 Geminal basis:    OPTFULL  GEM_TYPE=SLATER  BETA=1.0  NGEM=6

 Optimizing Gaussian exponents for each gem_beta

 Geminal optimization for beta= 1.0000
 Weight function:   m=0, omega= 1.4646

 Augmented Hessian optimization of geminal fit. Trust ratio= 0.40000
 Convergence reached after   2 iterations. Final gradient= 8.66D-16, Step= 4.23D-06, Delta= 1.28D-09

 Alpha:                 0.19532     0.81920     2.85917     9.50073    35.69989   197.79328
 Coeff:                 0.27070     0.30552     0.18297     0.10986     0.06810     0.04224


 All pairs explicitly correlated. Number of r12-pairs:           28

 Excluding core orbitals from MO domains

 AO(A)-basis ORBITAL           loaded. Number of functions:     178
 RI(R)-basis CC-PVTZ-F12/OPTRI loaded. Number of functions:     314
 DF-basis AUG-CC-PVTZ/JKFIT    loaded. Number of functions:     392

 Screening thresholds:   THRAO=  1.00D-10  THRMO=  1.00D-09  THRPROD=  1.00D-09
                         THRSW=  1.00D-05  THROV=  1.00D-12  THRAOF12= 1.00D-08

 CPU time for Fock operators                      1.57 sec

 Construction of ABS:
 Smallest eigenvalue of S          4.34E-04  (threshold= 1.00E-08)
 Ratio eigmin/eigmax               5.55E-05  (threshold= 1.00E-09)
 Smallest eigenvalue of S kept     4.34E-04  (threshold= 4.34E-04, 0 functions deleted, 314 kept)

 Construction of CABS:
 Smallest eigenvalue of S          7.24E-07  (threshold= 1.00E-08)
 Ratio eigmin/eigmax               7.24E-07  (threshold= 1.00E-09)
 Smallest eigenvalue of S kept     7.24E-07  (threshold= 7.24E-07, 0 functions deleted, 314 kept)

 CPU time for CABS singles                        0.04 sec

 CABS-singles contribution of  -0.00135322 patched into reference energy.
 New reference energy        -115.10010532

 AO(A)-basis ORBITAL           loaded. Number of functions:     178
 RI(R)-basis CC-PVTZ-F12/OPTRI loaded. Number of functions:     314
 DF-basis AUG-CC-PVTZ/MP2FIT   loaded. Number of functions:     396

 Screening thresholds:   THRAO=  1.00D-10  THRMO=  1.00D-09  THRPROD=  1.00D-09
                         THRSW=  1.00D-05  THROV=  1.00D-12  THRAOF12= 1.00D-08

 CPU time for 3-index integral evaluation         3.40 sec
 CPU time for first  half transformation          0.30 sec ( 8230.2 MFLOP/sec)
 CPU time for second half transformation          0.01 sec ( 6217.0 MFLOP/sec)
 CPU time for sorting                             0.03 sec
 CPU time for fitting                             0.02 sec (56971.3 MFLOP/sec)
 CPU time for tilde quantities                    0.03 sec (50348.4 MFLOP/sec)
 CPU time for assembly                            0.20 sec (61768.0 MFLOP/sec)
 CPU time for tranop_f12                          0.25 sec (63440.9 MFLOP/sec)
 CPU time for f12 integrals (total)               4.68 sec, Elapsed time:      7.38 sec
 CPU time for f12 matrices (total)                0.10 sec, Elapsed time:      0.16 sec

 Diagonal F12 approximation with fixed coefficients:  TSING= 0.500,  TTRIP= 0.250 (scaled by -1/beta)

 DF-MP2-F12 energy corrections:
 ==============================
 Approx.                                    Singlet             Triplet             Total
 DF-MP2-F12/3*C(DX,FIX)                -0.038291752653     -0.004213879391     -0.042505632044
 DF-MP2-F12/3*C(FIX)                   -0.036091917637     -0.003932086446     -0.040024004083
 DF-MP2-F12/3C(FIX)                    -0.036034924782     -0.004067166435     -0.040102091217

 DF-MP2-F12 correlation energies:
 ================================
 Approx.                                    Singlet             Triplet             Ecorr            Total Energy
 DF-MP2                                -0.291084942358     -0.152341534620     -0.443426476977   -115.543531793433
 DF-MP2-F12/3*C(DX,FIX)                -0.329376695011     -0.156555414010     -0.485932109021   -115.586037425477
 DF-MP2-F12/3*C(FIX)                   -0.327176859994     -0.156273621066     -0.483450481060   -115.583555797516
 DF-MP2-F12/3C(FIX)                    -0.327119867140     -0.156408701055     -0.483528568194   -115.583633884651

 SCS-DF-MP2 energies (F_SING= 1.20000  F_TRIP= 0.62222  F_PARALLEL= 0.33333):
 ============================================================================
 SCS-DF-MP2                            -0.444092219037   -115.544197535493
 SCS-DF-MP2-F12/3*C(DX,FIX)            -0.492664291619   -115.592769608075
 SCS-DF-MP2-F12/3*C(FIX)               -0.489849151767   -115.589954468224
 SCS-DF-MP2-F12/3C(FIX)                -0.489864810113   -115.589970126569
 Symmetry transformation completed.

 Number of N-1 electron functions:               7
 Number of N-2 electron functions:              28
 Number of singly external CSFs:              1183
 Number of doubly external CSFs:            700336
 Total number of CSFs:                      701520

 Length of J-op  integral file:             104.98 MB
 Length of K-op  integral file:             138.67 MB

 Integral transformation finished. Total CPU:   1.34 sec, npass=  1  Memory used:   2.18 MW

 ITER.      SQ.NORM     CORR.ENERGY   TOTAL ENERGY   ENERGY CHANGE     VAR   MIC
   1      1.00000000    -0.44349294  -115.54359825    -0.44349294  0.00D+00   0
   2      1.11470514    -0.44349294  -115.54359825     0.00000000 -0.11D-15   0

 Solving MP2-F12 equations

   1      1.11466896    -0.48283655  -115.58294187    -0.03934362 -0.37D-04   0
   2      1.11466896    -0.48359361  -115.58369893    -0.00075706 -0.50D-17   0
   3      1.11466896    -0.48359361  -115.58369893     0.00000000 -0.25D-18   0

 CPU TIME FOR ITERATIVE MP2:    0.12 SEC


 MP2-F12 energy corrections:
 ===========================
 Approx.                                    Singlet             Triplet             Total
 MP2-F12/3*C(DX,FIX)                   -0.038291752653     -0.004213879391     -0.042505632044
 MP2-F12/3*C(FIX)                      -0.036091917637     -0.003932086446     -0.040024004083
 MP2-F12/3C(FIX)                       -0.036032217259     -0.004068461021     -0.040100678280

 MP2-F12 correlation energies:
 =============================
 Approx.                                    Singlet             Triplet             Ecorr            Total Energy
 MP2                                   -0.291268296616     -0.152224639212     -0.443492935828   -115.543598252284
 MP2-F12/3*C(DX,FIX)                   -0.329560049269     -0.156438518603     -0.485998567872   -115.586103884328
 MP2-F12/3*C(FIX)                      -0.327360214253     -0.156156725658     -0.483516939911   -115.583622256367
 MP2-F12/3C(FIX)                       -0.327300513875     -0.156293100233     -0.483593614108   -115.583698930564

 SCS-MP2 energies (F_SING= 1.20000  F_TRIP= 0.62222  F_PARALLEL= 0.33333):
 =========================================================================
 SCS-MP2                               -0.444239509227   -115.544344825683
 SCS-MP2-F12/3*C(DX,FIX)               -0.492811581809   -115.592916898265
 SCS-MP2-F12/3*C(FIX)                  -0.489996441957   -115.590101758414
 SCS-MP2-F12/3C(FIX)                   -0.490009656795   -115.590114973251


  Reference energy                   -115.098752092650
  F12 singles correction               -0.001353223806

 F12 singles corrections added to reference energy

  New reference energy               -115.100105316456

  F12/3C(F) singlet correction         -0.036032217259
  F12/3C(F) triplet correction         -0.004068461021
  F12/3C(F) total correction           -0.040100678280
  MP2-F12/3C(F) singlet pair energy    -0.327300513875
  MP2-F12/3C(F) triplet pair energy    -0.156293100233
  MP2-F12/3C(F) correlation energy     -0.483593614108

 !MP2-F12/3C(F) total energy         -115.583698930564


 **********************************************************************************************************************************
 DATASETS  * FILE   NREC   LENGTH (MB)   RECORD NAMES
              1      20      572.11       500      610      700      900      950      970     1000      129      960     1100   
                                          VAR    BASINP    GEOM    SYMINP    ZMAT    AOBASIS   BASIS     P2S    ABASIS      S 
                                         1400     1410     1200     1210     1080     1600     1650     1300     1700     1380   
                                           T        V       H0       H01     AOSYM     SMH    MOLCAS    ERIS     OPER     JKOP   

              2       7        4.13       700     1000      520     2100     7360     7350     7000   
                                         GEOM     BASIS   MCVARS     RHF    F12ABS    EF12   

 PROGRAMS   *        TOTAL   MP2-F12    HF-SCF       INT
 CPU TIMES  *        26.40      8.13      8.15     10.00
 REAL TIME  *       254.32 SEC
 DISK USED  *         2.15 GB
 **********************************************************************************************************************************


 PROGRAM * CCSD (Closed-shell coupled cluster)     Authors: C. Hampel, H.-J. Werner, 1991, M. Deegan, P.J. Knowles, 1992

                                  CCSD-F12 implementation by  H.-J. Werner, 2007

                   Density fitting integral evaluation by F.R. Manby, 2003,2007, G. Knizia, 2010



 Convergence thresholds:  THRVAR = 1.00D-08  THRDEN = 1.00D-06

 CCSD(T)     terms to be evaluated (factor= 1.000)


 Number of core orbitals:           2 (   2 )
 Number of closed-shell orbitals:   7 (   7 )
 Number of external orbitals:     169 ( 169 )

 Molecular orbitals read from record     2100.2  Type=RHF/CANONICAL (state 1.1)

 MP2-F12 correlation treatment (H.-J. Werner, 2006)
 ==================================================

 Using MP2-F12 with ansatz 3C(FIX)

 Using projected zeroth-order Hamiltonian (+Z)

 FOCKRIB=T FOCKRIC=T FOCKRIP=T CABSP=T CABSA=T CABSK=T CABSF=T GBC=F EBC=F DMAT=T NOFIK=T NOPAO=1 SOLVE=-1  USEPAO=0
 EXCH_A= T EXCH_B= F EXCH_C= F EXCH_P= F

 Geminal basis:    OPTFULL  GEM_TYPE=SLATER  BETA=1.0  NGEM=6

 Optimizing Gaussian exponents for each gem_beta

 Geminal optimization for beta= 1.0000
 Weight function:   m=0, omega= 1.4646

 Augmented Hessian optimization of geminal fit. Trust ratio= 0.40000
 Convergence reached after   2 iterations. Final gradient= 8.66D-16, Step= 4.23D-06, Delta= 1.28D-09

 Alpha:                 0.19532     0.81920     2.85917     9.50073    35.69989   197.79328
 Coeff:                 0.27070     0.30552     0.18297     0.10986     0.06810     0.04224


 All pairs explicitly correlated. Number of r12-pairs:           28

 Excluding core orbitals from MO domains

 AO(A)-basis ORBITAL           loaded. Number of functions:     178
 RI(R)-basis CC-PVTZ-F12/OPTRI loaded. Number of functions:     314
 DF-basis AUG-CC-PVTZ/JKFIT    loaded. Number of functions:     392

 Screening thresholds:   THRAO=  1.00D-10  THRMO=  1.00D-09  THRPROD=  1.00D-09
                         THRSW=  1.00D-05  THROV=  1.00D-12  THRAOF12= 1.00D-08

 CPU time for Fock operators                      1.58 sec

 Construction of ABS:
 Smallest eigenvalue of S          4.34E-04  (threshold= 1.00E-08)
 Ratio eigmin/eigmax               5.55E-05  (threshold= 1.00E-09)
 Smallest eigenvalue of S kept     4.34E-04  (threshold= 4.34E-04, 0 functions deleted, 314 kept)

 Construction of CABS:
 Smallest eigenvalue of S          7.24E-07  (threshold= 1.00E-08)
 Ratio eigmin/eigmax               7.24E-07  (threshold= 1.00E-09)
 Smallest eigenvalue of S kept     7.24E-07  (threshold= 7.24E-07, 0 functions deleted, 314 kept)

 CPU time for CABS singles                        0.04 sec

 CABS-singles contribution of  -0.00135322 patched into reference energy.
 New reference energy        -115.10010532

 AO(A)-basis ORBITAL           loaded. Number of functions:     178
 RI(R)-basis CC-PVTZ-F12/OPTRI loaded. Number of functions:     314
 DF-basis AUG-CC-PVTZ/MP2FIT   loaded. Number of functions:     396

 Screening thresholds:   THRAO=  1.00D-10  THRMO=  1.00D-09  THRPROD=  1.00D-09
                         THRSW=  1.00D-05  THROV=  1.00D-12  THRAOF12= 1.00D-08

 CPU time for 3-index integral evaluation         3.40 sec
 CPU time for first  half transformation          0.27 sec ( 9144.6 MFLOP/sec)
 CPU time for second half transformation          0.03 sec ( 2072.3 MFLOP/sec)
 CPU time for sorting                             0.01 sec
 CPU time for fitting                             0.03 sec (37980.8 MFLOP/sec)
 CPU time for tilde quantities                    0.04 sec (37761.3 MFLOP/sec)
 CPU time for assembly                            0.18 sec (68631.1 MFLOP/sec)
 CPU time for tranop_f12                          0.27 sec (58741.6 MFLOP/sec)
 CPU time for f12 integrals (total)               4.77 sec, Elapsed time:      6.51 sec
 CPU time for f12 matrices (total)                0.11 sec, Elapsed time:      0.16 sec

 Diagonal F12 approximation with fixed coefficients:  TSING= 0.500,  TTRIP= 0.250 (scaled by -1/beta)

 DF-MP2-F12 energy corrections:
 ==============================
 Approx.                                    Singlet             Triplet             Total
 DF-MP2-F12/3*C(DX,FIX)                -0.038291752653     -0.004213879391     -0.042505632044
 DF-MP2-F12/3*C(FIX)                   -0.036091917637     -0.003932086446     -0.040024004083
 DF-MP2-F12/3C(FIX)                    -0.036034924782     -0.004067166435     -0.040102091217

 DF-MP2-F12 correlation energies:
 ================================
 Approx.                                    Singlet             Triplet             Ecorr            Total Energy
 DF-MP2                                -0.291084942358     -0.152341534620     -0.443426476977   -115.543531793433
 DF-MP2-F12/3*C(DX,FIX)                -0.329376695011     -0.156555414010     -0.485932109021   -115.586037425477
 DF-MP2-F12/3*C(FIX)                   -0.327176859994     -0.156273621066     -0.483450481060   -115.583555797516
 DF-MP2-F12/3C(FIX)                    -0.327119867140     -0.156408701055     -0.483528568194   -115.583633884651

 SCS-DF-MP2 energies (F_SING= 1.20000  F_TRIP= 0.62222  F_PARALLEL= 0.33333):
 ============================================================================
 SCS-DF-MP2                            -0.444092219037   -115.544197535493
 SCS-DF-MP2-F12/3*C(DX,FIX)            -0.492664291619   -115.592769608075
 SCS-DF-MP2-F12/3*C(FIX)               -0.489849151767   -115.589954468224
 SCS-DF-MP2-F12/3C(FIX)                -0.489864810113   -115.589970126569
 Symmetry transformation completed.

 Number of N-1 electron functions:               7
 Number of N-2 electron functions:              28
 Number of singly external CSFs:              1183
 Number of doubly external CSFs:            700336
 Total number of CSFs:                      701520

 Length of J-op  integral file:             105.23 MB
 Length of K-op  integral file:             138.67 MB
 Length of 3-ext integral record:             0.00 MB

 Memory could be reduced to 48.01 Mwords without degradation in triples

 Integral transformation finished. Total CPU:   3.28 sec, npass=  1  Memory used:  24.86 MW

 Reference energy:                   -115.10010532

 Adding F12 terms to K(Cij), methodcc=6,  factor= 1.0

 ITER.      SQ.NORM     CORR.ENERGY   TOTAL ENERGY   ENERGY CHANGE        DEN1      VAR(S)    VAR(P)  DIIS     TIME  TIME/IT
   1      1.11759711    -0.45283257  -115.55293789    -0.00933964     0.00166099  0.15D-02  0.19D-02  1  1    13.07     9.57
   2      1.12500715    -0.45319500  -115.55330032    -0.00036243    -0.00904642  0.24D-04  0.23D-03  2  2    16.17     9.27
   3      1.12773649    -0.45337246  -115.55347778    -0.00017746    -0.00186512  0.15D-04  0.13D-04  3  3    19.22     9.81
   4      1.12868375    -0.45339036  -115.55349568    -0.00001790    -0.00060009  0.87D-06  0.12D-05  4  4    22.36    10.39
   5      1.12883952    -0.45339191  -115.55349723    -0.00000155    -0.00003791  0.23D-06  0.10D-06  5  5    25.44     9.80
   6      1.12888220    -0.45338955  -115.55349487     0.00000236    -0.00000424  0.36D-07  0.97D-08  6  6    28.54     9.48
   7      1.12889340    -0.45338867  -115.55349399     0.00000088    -0.00000299  0.40D-08  0.14D-08  6  1    31.48     8.81
   8      1.12889521    -0.45338874  -115.55349405    -0.00000006     0.00000034  0.68D-09  0.20D-09  6  3    34.36     8.10

 Norm of t1 vector:      0.05001074      S-energy:     0.00000010      T1 diagnostic:  0.00945114
                                                                       D1 diagnostic:  0.02000528

 Adding energy correction from Wij-K(Fij), methodcc=6  factor= 1.0

  CCSD correlation energy              -0.453388735906
  MP2-F12 correction (uncoupled)       -0.038549184374
  C*T doubles correction               -0.001165713126
  f12b correction                       0.007099239872


 Total CPU time for triples:     35.33 sec


 RESULTS
 =======

  Reference energy                   -115.098752092650
  F12 singles correction               -0.001353223806

 F12 singles corrections added to reference energy

  New reference energy               -115.100105316456

  F12a singlet correction              -0.035795133918
  F12a triplet correction              -0.003919763583
  F12a total correction                -0.039714897500

 F12a corrections for ansatz F12/3C(FIX) added to CCSD energy

  CCSD-F12a singlet pair energy        -0.351204495383
  CCSD-F12a triplet pair energy        -0.141899235020
  CCSD-F12a correlation energy         -0.493103633406

  Triples (T) contribution             -0.016009581689
  Total correlation energy             -0.509113215096

  CCSD-F12a total energy             -115.593208949863
  CCSD[T]-F12a energy                -115.609771602370
  CCSD-T-F12a energy                 -115.608974791626
 !CCSD(T)-F12a total energy          -115.609218531552

 F12b corrections for ansatz F12/3C(FIX) added to CCSD(T)-F12a energy

  CCSD-F12b singlet pair energy        -0.344567411861
  CCSD-F12b triplet pair energy        -0.141437078670
  CCSD-F12b correlation energy         -0.486004393534

  Triples (T) contribution             -0.016009581689
  Total correlation energy             -0.502013975223

  CCSD-F12b total energy             -115.586109709990
  CCSD[T]-F12b energy                -115.602672362498
  CCSD-T-F12b energy                 -115.601875551754
 !CCSD(T)-F12b total energy          -115.602119291679

 Timing summary (sec):

 STEP                 CPU(USER)    SYS     CPU(TOT)    WALL
 Transformation          3.33      1.18      4.51      9.39
 CCSD iterations        24.42      7.77     32.19     65.28
 Triples                35.33      1.20     36.53     43.22
 MP2-F12                 6.63      0.56      7.19      9.57
 F12b energy             2.32      0.10      2.42      2.45

 Program statistics:

 Available memory in ccsd:               499999646
 Min. memory needed in ccsd:               2228017
 Max. memory used in ccsd:                 2807120
 Max. memory used in cckext:               2027429 ( 9 integral passes)



 **********************************************************************************************************************************
 DATASETS  * FILE   NREC   LENGTH (MB)   RECORD NAMES
              1      20      708.06       500      610      700      900      950      970     1000      129      960     1100   
                                          VAR    BASINP    GEOM    SYMINP    ZMAT    AOBASIS   BASIS     P2S    ABASIS      S 
                                         1400     1410     1200     1210     1080     1600     1650     1300     1700     1380   
                                           T        V       H0       H01     AOSYM     SMH    MOLCAS    ERIS     OPER     JKOP   

              2       7        4.13       700     1000      520     2100     7360     7350     7000   
                                         GEOM     BASIS   MCVARS     RHF    F12ABS    EF12   

 PROGRAMS   *        TOTAL   CCSD(T)   MP2-F12    HF-SCF       INT
 CPU TIMES  *        98.49     72.08      8.13      8.15     10.00
 REAL TIME  *       385.12 SEC
 DISK USED  *         2.15 GB
 **********************************************************************************************************************************
 SETTING XXX            =    "MMM"
 SETTING POINT          =        69.00000000                                  

 *** ### CH3OH


 XXX       RCO          ROH          RCH1         RCH2         RCH3           ACOH           AOCH1          AOCH2          AOCH3         AHH1           AHH2           AHH3            ENERGY       POINT
 "MMM"   1.42077677   0.96013932   1.09171752   1.08440070   1.09171752   108.12930637   110.65221523   107.18733878   111.65221523   61.43364279   180.00000000   298.56635721   -115.60921853   69.0000
                                                  

 CCSD(T)-F12/cc-pVTZ-F12 energy=   -115.602119291679

     CCSD(T)-F12         MP2-F12          HF-SCF
   -115.60211929   -115.58369893   -115.09875209
 **********************************************************************************************************************************
 Molpro calculation terminated
