
 Primary working directories    : /tmpdir/job/2955627.undefined/molpro.2ALMBqikoT
 Secondary working directories  : /tmpdir/job/2955627.undefined/molpro.2ALMBqikoT
 Wavefunction directory         : /home/zcaposm/wfu/
 Main file repository           : /tmpdir/job/2955627.undefined/molpro.2ALMBqikoT/

 id        : uclcc

 Nodes                         nprocs
 node-h00a-027.myriad.ucl.ac.uk    1

 Using customized tuning parameters: mindgm=1; mindgv=20; mindgc=4; mindgr=1; noblas=0; minvec=7
 default implementation of scratch files=df  


 Variables initialized (945), CPU time= 0.00 sec
 ***,Methanol Ground State Energy with CCSD(T)-F12 and cc-pVTZ-F12
 memory,500,m;
 
 geometry={angstrom
 c
 o , 1, rco
 h , 2, roh, 1, acoh
 h1, 1, rch1, 2, aoch1  3  ahh1
 h2, 1, rch2, 2, aoch2, 3, ahh2
 h3, 1, rch3, 2, aoch3, 3, ahh3
 }
 
                                                ! Specify the initial values of the internal coordinates (in Angstroms and degrees)
 
 rco= 1.42077677
 roh= 0.96013932
 rch1= 1.091717515605
 rch2= 1.08440070258
 rch3= 1.091717515605
 acoh= 109.62930637
 aoch1= 111.6522152299
 aoch2= 107.18733878260001
 aoch3= 111.6522152299
 ahh1=61.43364279
 ahh2=180.0
 ahh3=298.56635721
 
                                                                                 ! Use the cc-pVTZ-F12 basis set
 basis=cc-pVTZ-F12
 
 hf
 
                                                                                 ! Use explicitly correlated F12 methods
                                                                            ! First, MP2-F12 (useful for initial electronic energy)
 {mp2-f12}
 
                                                                        ! If desired, perform CCSD(T)-F12 for more accurate results
 {ccsd(t)-f12}
 
                                                                                 ! Output the energy
 xxx = "mmm"
 point = 60
 text ### CH3OH
 table,xxx,rco,roh,rch1,rch2,rch3,acoh,aoch1,aoch2,aoch3,ahh1,ahh2,ahh3,energy,point
 DIGITS, 0, 8, 8, 8, 8, 8, 8, 8, 8, 8,  8,  8,  8, 8, 4
 save,CH3OH_MEP_MP2_60.dat,new
 
 Commands  initialized (802), CPU time= 0.01 sec, 659 directives.
 Default parameters read. Elapsed time= 0.09 sec

 Checking input...
 Passed
1


                                         ***  PROGRAM SYSTEM MOLPRO  ***
                                       Copyright, TTI GmbH Stuttgart, 2015
                                    Version 2020.1 linked Oct  6 2020 12:04:11


 **********************************************************************************************************************************
 LABEL *   Methanol Ground State Energy with CCSD(T)-F12 and cc-pVTZ-F12                 
  64 bit serial version                                                                  DATE: 08-Oct-24          TIME: 17:18:00  
 **********************************************************************************************************************************

 SHA1:             8c27446f6450a7499e38f603e13c65f775101d37
 **********************************************************************************************************************************

 Memory per process:       500 MW
 Total memory per node:    500 MW

 GA preallocation disabled
 GA check disabled

 Variable memory set to 500.0 MW

 SETTING RCO            =         1.42077677                                  
 SETTING ROH            =         0.96013932                                  
 SETTING RCH1           =         1.09171752                                  
 SETTING RCH2           =         1.08440070                                  
 SETTING RCH3           =         1.09171752                                  
 SETTING ACOH           =       109.62930637                                  
 SETTING AOCH1          =       111.65221523                                  
 SETTING AOCH2          =       107.18733878                                  
 SETTING AOCH3          =       111.65221523                                  
 SETTING AHH1           =        61.43364279                                  
 SETTING AHH2           =       180.00000000                                  
 SETTING AHH3           =       298.56635721                                  
 SETTING BASIS          =    CC-PVTZ-F12


 Recomputing integrals since basis changed


 Using spherical harmonics

 Library entry C      S cc-pVTZ-F12          selected for orbital group  1
 Library entry C      P cc-pVTZ-F12          selected for orbital group  1
 Library entry C      D cc-pVTZ-F12          selected for orbital group  1
 Library entry C      F cc-pVTZ-F12          selected for orbital group  1
 Library entry O      S cc-pVTZ-F12          selected for orbital group  2
 Library entry O      P cc-pVTZ-F12          selected for orbital group  2
 Library entry O      D cc-pVTZ-F12          selected for orbital group  2
 Library entry O      F cc-pVTZ-F12          selected for orbital group  2
 Library entry H      S cc-pVTZ-F12          selected for orbital group  3
 Library entry H      P cc-pVTZ-F12          selected for orbital group  3
 Library entry H      D cc-pVTZ-F12          selected for orbital group  3


 PROGRAM * SEWARD (Integral evaluation for generally contracted gaussian basis sets)     Author: Roland Lindh, 1990

 Geometry written to block  1 of record 700

 Orientation using atomic masses  
 Molecule type: Asymmetric top
 Symmetry elements: X
 Rotational constants:      23.9204208     24.7482506    129.2985068 GHz  (calculated with average atomic masses)

 Point group  Cs  



 ATOMIC COORDINATES

 NR  ATOM    CHARGE       X              Y              Z

   1  C       6.00    0.000000000    0.026530887   -1.377962206
   2  O       8.00    0.000000000   -0.122232753    1.302792261
   3  H       1.00    0.000000000    1.550327660    2.006063417
   4  H1      1.00    1.684053272    0.984192502   -2.087195727
   5  H3      1.00   -1.684053272    0.984192502   -2.087195727
   6  H2      1.00    0.000000000   -1.894619746   -2.091043009

 Bond lengths in Bohr (Angstrom)

 1-2  2.684878979  1-4  2.063047110  1-5  2.063047110  1-6  2.049220337  2-3  1.814400356
     ( 1.420776770)     ( 1.091717516)     ( 1.091717516)     ( 1.084400703)     ( 0.960139320)

 Bond angles

  1-2-3  109.62930637   2-1-4  111.65221523   2-1-5  111.65221523   2-1-6  107.18733878

  4-1-5  109.43105099   4-1-6  108.39459424   5-1-6  108.39459424

 NUCLEAR CHARGE:                   18
 NUMBER OF PRIMITIVE AOS:         228
 NUMBER OF SYMMETRY AOS:          206
 NUMBER OF CONTRACTIONS:          178   (  114A'  +   64A"  )
 NUMBER OF INNER CORE ORBITALS:     0   (    0A'  +    0A"  )
 NUMBER OF OUTER CORE ORBITALS:     2   (    2A'  +    0A"  )
 NUMBER OF VALENCE ORBITALS:       12   (    9A'  +    3A"  )


 NUCLEAR REPULSION ENERGY   40.32655196

 Eigenvalues of metric

         1 0.880E-04 0.182E-03 0.311E-03 0.460E-03 0.493E-03 0.560E-03 0.616E-03 0.621E-03
         2 0.323E-03 0.570E-03 0.686E-03 0.178E-02 0.338E-02 0.490E-02 0.644E-02 0.868E-02


 Contracted 2-electron integrals neglected if value below      1.0D-11
 AO integral compression algorithm  1   Integral accuracy      1.0D-11

     331.612 MB (compressed) written to integral file ( 53.5%)


 NUMBER OF SORTED TWO-ELECTRON INTEGRALS:   64554730.     BUFFER LENGTH:  32768
 NUMBER OF SEGMENTS:   5  SEGMENT LENGTH:   15997996      RECORD LENGTH: 524288

 Memory used in sort:      16.56 MW

 SORT1 READ    77497885. AND WROTE    63552651. INTEGRALS IN    184 RECORDS. CPU TIME:     2.14 SEC, REAL TIME:    57.87 SEC
 SORT2 READ    63552651. AND WROTE    64554730. INTEGRALS IN   1265 RECORDS. CPU TIME:     1.38 SEC, REAL TIME:   142.08 SEC

 FILE SIZES:   FILE 1:   362.5 MBYTE,  FILE 4:   771.8 MBYTE,   TOTAL:   1134.3 MBYTE

 OPERATOR DM      FOR CENTER  0  COORDINATES:    0.000000    0.000000    0.000000


 **********************************************************************************************************************************
 DATASETS  * FILE   NREC   LENGTH (MB)   RECORD NAMES
              1      19      311.78       500      610      700      900      950      970     1000      129      960     1100   
                                          VAR    BASINP    GEOM    SYMINP    ZMAT    AOBASIS   BASIS     P2S    ABASIS      S 
                                         1400     1410     1200     1210     1080     1600     1650     1300     1700   
                                           T        V       H0       H01     AOSYM     SMH    MOLCAS    ERIS     OPER   

 PROGRAMS   *        TOTAL       INT
 CPU TIMES  *         7.03      6.91
 REAL TIME  *       253.64 SEC
 DISK USED  *         1.13 GB
 **********************************************************************************************************************************


 PROGRAM * RHF-SCF (CLOSED SHELL)       Authors: W. Meyer, H.-J. Werner


 NUMBER OF ELECTRONS:       9+    9-
 CONVERGENCE THRESHOLDS:    1.00E-05 (Density)    1.00E-07 (Energy)
 MAX. NUMBER OF ITERATIONS:       60
 INTERPOLATION TYPE:            DIIS
 INTERPOLATION STEPS:              2 (START)      1 (STEP)
 LEVEL SHIFTS:                  0.00 (CLOSED)  0.00 (OPEN) 



 Orbital guess generated from atomic densities. Full valence occupancy:   11   3

 Molecular orbital dump at record        2100.2

 Initial occupancy:   7   2

 ITERATION    DDIFF          GRAD             ENERGY        2-EL.EN.            DIPOLE MOMENTS         DIIS   ORB.
    1      0.000D+00      0.000D+00      -115.06255137    164.468196    0.00000    0.89801   -0.45851    0    start
    2      0.000D+00      0.667D-02      -115.09081384    161.870770    0.00000    0.49547   -0.29222    1    diag
    3      0.652D-02      0.365D-02      -115.09827251    163.140590    0.00000    0.59729   -0.38370    2    diag
    4      0.221D-02      0.719D-03      -115.09880298    162.963626    0.00000    0.59236   -0.37966    3    diag
    5      0.593D-03      0.144D-03      -115.09883684    162.974801    0.00000    0.58841   -0.38450    4    diag
    6      0.164D-03      0.267D-04      -115.09883837    162.972696    0.00000    0.58856   -0.38529    5    diag
    7      0.473D-04      0.565D-05      -115.09883844    162.972270    0.00000    0.58838   -0.38556    6    diag
    8      0.118D-04      0.151D-05      -115.09883844    162.972636    0.00000    0.58836   -0.38559    7    diag
    9      0.239D-05      0.481D-06      -115.09883844    162.972471    0.00000    0.58835   -0.38559    0    orth

 Final occupancy:   7   2

 !RHF STATE  1.1 Energy              -115.098838439885
 Nuclear energy                        40.32655196
 One-electron energy                 -236.91162596
 Two-electron energy                   81.48623557
 Virial quotient                       -1.00105196
 !RHF STATE  1.1 Dipole moment          0.00000000     0.58834642    -0.38559365
 Dipole moment /Debye                   0.00000000     1.49532948    -0.98001711

 Orbital energies:

         1.1          2.1          3.1          4.1          5.1          6.1          7.1          8.1          9.1
    -20.555631   -11.269886    -1.355801    -0.926952    -0.690564    -0.595035    -0.502745     0.054833     0.065010

         1.2          2.2          3.2          4.2
     -0.621138    -0.451824     0.073880     0.181389


 HOMO      2.2    -0.451824 =     -12.2948eV
 LUMO      8.1     0.054833 =       1.4921eV
 LUMO-HOMO         0.506658 =      13.7869eV


 **********************************************************************************************************************************
 DATASETS  * FILE   NREC   LENGTH (MB)   RECORD NAMES
              1      19      311.78       500      610      700      900      950      970     1000      129      960     1100   
                                          VAR    BASINP    GEOM    SYMINP    ZMAT    AOBASIS   BASIS     P2S    ABASIS      S 
                                         1400     1410     1200     1210     1080     1600     1650     1300     1700   
                                           T        V       H0       H01     AOSYM     SMH    MOLCAS    ERIS     OPER   

              2       4        3.18       700     1000      520     2100   
                                         GEOM     BASIS   MCVARS     RHF  

 PROGRAMS   *        TOTAL    HF-SCF       INT
 CPU TIMES  *        10.09      3.06      6.91
 REAL TIME  *       278.84 SEC
 DISK USED  *         1.13 GB
 **********************************************************************************************************************************


 PROGRAM * MP2 (Closed-shell)     Authors: C. Hampel, H.-J. Werner, 1991, M. Deegan, P.J. Knowles, 1992

                                   MP2-F12 implementation by H.-J. Werner, 2007

                   Density fitting integral evaluation by F.R. Manby, 2003,2007, G. Knizia, 2010


 Basis set AUG-CC-PVTZ/JKFIT generated.  Number of basis functions:   392 
 Basis set CC-PVTZ-F12/OPTRI generated.  Number of basis functions:   314 
 Basis set AUG-CC-PVTZ/MP2FIT generated. Number of basis functions:   396 

 Convergence thresholds:  THRVAR = 1.00D-08  THRDEN = 1.00D-06

 Number of core orbitals:           2 (   2   0 )
 Number of closed-shell orbitals:   7 (   5   2 )
 Number of external orbitals:     169 ( 107  62 )

 Molecular orbitals read from record     2100.2  Type=RHF/CANONICAL (state 1.1)

 MP2-F12 correlation treatment (H.-J. Werner, 2006)
 ==================================================

 Using MP2-F12 with ansatz 3C(FIX)

 Using projected zeroth-order Hamiltonian (+Z)

 FOCKRIB=T FOCKRIC=T FOCKRIP=T CABSP=T CABSA=T CABSK=T CABSF=T GBC=F EBC=F DMAT=T NOFIK=T NOPAO=1 SOLVE=-1  USEPAO=0
 EXCH_A= T EXCH_B= F EXCH_C= F EXCH_P= F

 Geminal basis:    OPTFULL  GEM_TYPE=SLATER  BETA=1.0  NGEM=6

 Optimizing Gaussian exponents for each gem_beta

 Geminal optimization for beta= 1.0000
 Weight function:   m=0, omega= 1.4646

 Augmented Hessian optimization of geminal fit. Trust ratio= 0.40000
 Convergence reached after   2 iterations. Final gradient= 8.66D-16, Step= 4.23D-06, Delta= 1.28D-09

 Alpha:                 0.19532     0.81920     2.85917     9.50073    35.69989   197.79328
 Coeff:                 0.27070     0.30552     0.18297     0.10986     0.06810     0.04224


 Symmetry turned off. Reference energy:       -115.098838439885

 All pairs explicitly correlated. Number of r12-pairs:           28

 Excluding core orbitals from MO domains

 AO(A)-basis ORBITAL           loaded. Number of functions:     178
 RI(R)-basis CC-PVTZ-F12/OPTRI loaded. Number of functions:     314
 DF-basis AUG-CC-PVTZ/JKFIT    loaded. Number of functions:     392

 Screening thresholds:   THRAO=  1.00D-10  THRMO=  1.00D-09  THRPROD=  1.00D-09
                         THRSW=  1.00D-05  THROV=  1.00D-12  THRAOF12= 1.00D-08

 CPU time for Fock operators                      5.20 sec

 Construction of ABS:
 Smallest eigenvalue of S          4.41E-04  (threshold= 1.00E-08)
 Ratio eigmin/eigmax               5.65E-05  (threshold= 1.00E-09)
 Smallest eigenvalue of S kept     4.41E-04  (threshold= 4.41E-04, 0 functions deleted, 314 kept)

 Construction of CABS:
 Smallest eigenvalue of S          7.27E-07  (threshold= 1.00E-08)
 Ratio eigmin/eigmax               7.27E-07  (threshold= 1.00E-09)
 Smallest eigenvalue of S kept     7.27E-07  (threshold= 7.27E-07, 0 functions deleted, 314 kept)

 CPU time for CABS singles                        0.04 sec

 CABS-singles contribution of  -0.00135340 patched into reference energy.
 New reference energy        -115.10019184

 AO(A)-basis ORBITAL           loaded. Number of functions:     178
 RI(R)-basis CC-PVTZ-F12/OPTRI loaded. Number of functions:     314
 DF-basis AUG-CC-PVTZ/MP2FIT   loaded. Number of functions:     396

 Screening thresholds:   THRAO=  1.00D-10  THRMO=  1.00D-09  THRPROD=  1.00D-09
                         THRSW=  1.00D-05  THROV=  1.00D-12  THRAOF12= 1.00D-08

 CPU time for 3-index integral evaluation         3.29 sec
 CPU time for first  half transformation          0.39 sec ( 6330.9 MFLOP/sec)
 CPU time for second half transformation          0.02 sec ( 3108.5 MFLOP/sec)
 CPU time for sorting                             0.01 sec
 CPU time for fitting                             0.02 sec (56971.3 MFLOP/sec)
 CPU time for tilde quantities                    0.03 sec (50348.4 MFLOP/sec)
 CPU time for assembly                            0.22 sec (56152.7 MFLOP/sec)
 CPU time for tranop_f12                          0.31 sec (51162.0 MFLOP/sec)
 CPU time for f12 integrals (total)               6.94 sec, Elapsed time:      7.25 sec
 CPU time for f12 matrices (total)                0.10 sec, Elapsed time:      0.13 sec

 Diagonal F12 approximation with fixed coefficients:  TSING= 0.500,  TTRIP= 0.250 (scaled by -1/beta)

 DF-MP2-F12 energy corrections:
 ==============================
 Approx.                                    Singlet             Triplet             Total
 DF-MP2-F12/3*C(DX,FIX)                -0.038290048622     -0.004210972381     -0.042501021003
 DF-MP2-F12/3*C(FIX)                   -0.036092227888     -0.003928986688     -0.040021214576
 DF-MP2-F12/3C(FIX)                    -0.036034971350     -0.004063904288     -0.040098875638

 DF-MP2-F12 correlation energies:
 ================================
 Approx.                                    Singlet             Triplet             Ecorr            Total Energy
 DF-MP2                                -0.291024197242     -0.152308431438     -0.443332628680   -115.543524468344
 DF-MP2-F12/3*C(DX,FIX)                -0.329314245864     -0.156519403820     -0.485833649683   -115.586025489347
 DF-MP2-F12/3*C(FIX)                   -0.327116425130     -0.156237418126     -0.483353843256   -115.583545682919
 DF-MP2-F12/3C(FIX)                    -0.327059168591     -0.156372335727     -0.483431504318   -115.583623343982

 SCS-DF-MP2 energies (F_SING= 1.20000  F_TRIP= 0.62222  F_PARALLEL= 0.33333):
 ============================================================================
 SCS-DF-MP2                            -0.443998727363   -115.544190567027
 SCS-DF-MP2-F12/3*C(DX,FIX)            -0.492566946302   -115.592758785966
 SCS-DF-MP2-F12/3*C(FIX)               -0.489754103656   -115.589945943320
 SCS-DF-MP2-F12/3C(FIX)                -0.489769344539   -115.589961184203

 Symmetry restored.
 Symmetry transformation completed.

 Number of N-1 electron functions:               7
 Number of N-2 electron functions:              28
 Number of singly external CSFs:               659
 Number of doubly external CSFs:            355020
 Total number of CSFs:                      355680

 Length of J-op  integral file:             103.49 MB
 Length of K-op  integral file:             127.95 MB

 Integral transformation finished. Total CPU:   0.43 sec, npass=  1  Memory used:   0.67 MW

 ITER.      SQ.NORM     CORR.ENERGY   TOTAL ENERGY   ENERGY CHANGE     VAR   MIC
   1      1.00000000    -0.44339923  -115.54359107    -0.44339923  0.00D+00   0
   2      1.11468190    -0.44339923  -115.54359107    -0.00000000  0.11D-14   0

 Solving MP2-F12 equations

   1      1.11464557    -0.48274066  -115.58293250    -0.03934144 -0.37D-04   0
   2      1.11464557    -0.48349668  -115.58368852    -0.00075601 -0.91D-19   0
   3      1.11464557    -0.48349668  -115.58368852     0.00000000  0.12D-18   0

 CPU TIME FOR ITERATIVE MP2:    0.03 SEC


 MP2-F12 energy corrections:
 ===========================
 Approx.                                    Singlet             Triplet             Total
 MP2-F12/3*C(DX,FIX)                   -0.038290048622     -0.004210972381     -0.042501021003
 MP2-F12/3*C(FIX)                      -0.036092227888     -0.003928986688     -0.040021214576
 MP2-F12/3C(FIX)                       -0.036032256016     -0.004065193324     -0.040097449339

 MP2-F12 correlation energies:
 =============================
 Approx.                                    Singlet             Triplet             Ecorr            Total Energy
 MP2                                   -0.291207372531     -0.152191853691     -0.443399226222   -115.543591065886
 MP2-F12/3*C(DX,FIX)                   -0.329497421153     -0.156402826072     -0.485900247226   -115.586092086889
 MP2-F12/3*C(FIX)                      -0.327299600419     -0.156120840379     -0.483420440798   -115.583612280462
 MP2-F12/3C(FIX)                       -0.327239628547     -0.156257047014     -0.483496675562   -115.583688515226

 SCS-MP2 energies (F_SING= 1.20000  F_TRIP= 0.62222  F_PARALLEL= 0.33333):
 =========================================================================
 SCS-MP2                               -0.444146000445   -115.544337840109
 SCS-MP2-F12/3*C(DX,FIX)               -0.492714219384   -115.592906059048
 SCS-MP2-F12/3*C(FIX)                  -0.489901376739   -115.590093216402
 SCS-MP2-F12/3C(FIX)                   -0.489914161288   -115.590106000952


  Reference energy                   -115.098838439885
  F12 singles correction               -0.001353399779

 F12 singles corrections added to reference energy

  New reference energy               -115.100191839664

  F12/3C(F) singlet correction         -0.036032256016
  F12/3C(F) triplet correction         -0.004065193324
  F12/3C(F) total correction           -0.040097449339
  MP2-F12/3C(F) singlet pair energy    -0.327239628547
  MP2-F12/3C(F) triplet pair energy    -0.156257047014
  MP2-F12/3C(F) correlation energy     -0.483496675562

 !MP2-F12/3C(F) total energy         -115.583688515226


 **********************************************************************************************************************************
 DATASETS  * FILE   NREC   LENGTH (MB)   RECORD NAMES
              1      20      317.52       500      610      700      900      950      970     1000      129      960     1100   
                                          VAR    BASINP    GEOM    SYMINP    ZMAT    AOBASIS   BASIS     P2S    ABASIS      S 
                                         1400     1410     1200     1210     1080     1600     1650     1300     1700     1380   
                                           T        V       H0       H01     AOSYM     SMH    MOLCAS    ERIS     OPER     JKOP   

              2       7        3.55       700     1000      520     2100     7360     7350     7000   
                                         GEOM     BASIS   MCVARS     RHF    F12ABS    EF12   

 PROGRAMS   *        TOTAL   MP2-F12    HF-SCF       INT
 CPU TIMES  *        23.06     12.96      3.06      6.91
 REAL TIME  *       293.47 SEC
 DISK USED  *         1.13 GB
 **********************************************************************************************************************************


 PROGRAM * CCSD (Closed-shell coupled cluster)     Authors: C. Hampel, H.-J. Werner, 1991, M. Deegan, P.J. Knowles, 1992

                                  CCSD-F12 implementation by  H.-J. Werner, 2007

                   Density fitting integral evaluation by F.R. Manby, 2003,2007, G. Knizia, 2010



 Convergence thresholds:  THRVAR = 1.00D-08  THRDEN = 1.00D-06

 CCSD(T)     terms to be evaluated (factor= 1.000)


 Number of core orbitals:           2 (   2   0 )
 Number of closed-shell orbitals:   7 (   5   2 )
 Number of external orbitals:     169 ( 107  62 )

 Molecular orbitals read from record     2100.2  Type=RHF/CANONICAL (state 1.1)

 MP2-F12 correlation treatment (H.-J. Werner, 2006)
 ==================================================

 Using MP2-F12 with ansatz 3C(FIX)

 Using projected zeroth-order Hamiltonian (+Z)

 FOCKRIB=T FOCKRIC=T FOCKRIP=T CABSP=T CABSA=T CABSK=T CABSF=T GBC=F EBC=F DMAT=T NOFIK=T NOPAO=1 SOLVE=-1  USEPAO=0
 EXCH_A= T EXCH_B= F EXCH_C= F EXCH_P= F

 Geminal basis:    OPTFULL  GEM_TYPE=SLATER  BETA=1.0  NGEM=6

 Optimizing Gaussian exponents for each gem_beta

 Geminal optimization for beta= 1.0000
 Weight function:   m=0, omega= 1.4646

 Augmented Hessian optimization of geminal fit. Trust ratio= 0.40000
 Convergence reached after   2 iterations. Final gradient= 8.66D-16, Step= 4.23D-06, Delta= 1.28D-09

 Alpha:                 0.19532     0.81920     2.85917     9.50073    35.69989   197.79328
 Coeff:                 0.27070     0.30552     0.18297     0.10986     0.06810     0.04224


 Symmetry turned off. Reference energy:       -115.098838439885

 All pairs explicitly correlated. Number of r12-pairs:           28

 Excluding core orbitals from MO domains

 AO(A)-basis ORBITAL           loaded. Number of functions:     178
 RI(R)-basis CC-PVTZ-F12/OPTRI loaded. Number of functions:     314
 DF-basis AUG-CC-PVTZ/JKFIT    loaded. Number of functions:     392

 Screening thresholds:   THRAO=  1.00D-10  THRMO=  1.00D-09  THRPROD=  1.00D-09
                         THRSW=  1.00D-05  THROV=  1.00D-12  THRAOF12= 1.00D-08

 CPU time for Fock operators                      5.37 sec

 Construction of ABS:
 Smallest eigenvalue of S          4.41E-04  (threshold= 1.00E-08)
 Ratio eigmin/eigmax               5.65E-05  (threshold= 1.00E-09)
 Smallest eigenvalue of S kept     4.41E-04  (threshold= 4.41E-04, 0 functions deleted, 314 kept)

 Construction of CABS:
 Smallest eigenvalue of S          7.27E-07  (threshold= 1.00E-08)
 Ratio eigmin/eigmax               7.27E-07  (threshold= 1.00E-09)
 Smallest eigenvalue of S kept     7.27E-07  (threshold= 7.27E-07, 0 functions deleted, 314 kept)

 CPU time for CABS singles                        0.04 sec

 CABS-singles contribution of  -0.00135340 patched into reference energy.
 New reference energy        -115.10019184

 AO(A)-basis ORBITAL           loaded. Number of functions:     178
 RI(R)-basis CC-PVTZ-F12/OPTRI loaded. Number of functions:     314
 DF-basis AUG-CC-PVTZ/MP2FIT   loaded. Number of functions:     396

 Screening thresholds:   THRAO=  1.00D-10  THRMO=  1.00D-09  THRPROD=  1.00D-09
                         THRSW=  1.00D-05  THROV=  1.00D-12  THRAOF12= 1.00D-08

 CPU time for 3-index integral evaluation         3.16 sec
 CPU time for first  half transformation          0.46 sec ( 5367.5 MFLOP/sec)
 CPU time for second half transformation          0.02 sec ( 3108.5 MFLOP/sec)
 CPU time for fitting                             0.04 sec (28485.6 MFLOP/sec)
 CPU time for tilde quantities                    0.03 sec (50348.4 MFLOP/sec)
 CPU time for assembly                            0.20 sec (61768.0 MFLOP/sec)
 CPU time for tranop_f12                          0.28 sec (56643.7 MFLOP/sec)
 CPU time for f12 integrals (total)               6.91 sec, Elapsed time:      7.24 sec
 CPU time for f12 matrices (total)                0.10 sec, Elapsed time:      0.13 sec

 Diagonal F12 approximation with fixed coefficients:  TSING= 0.500,  TTRIP= 0.250 (scaled by -1/beta)

 DF-MP2-F12 energy corrections:
 ==============================
 Approx.                                    Singlet             Triplet             Total
 DF-MP2-F12/3*C(DX,FIX)                -0.038290048622     -0.004210972381     -0.042501021003
 DF-MP2-F12/3*C(FIX)                   -0.036092227888     -0.003928986688     -0.040021214576
 DF-MP2-F12/3C(FIX)                    -0.036034971350     -0.004063904288     -0.040098875638

 DF-MP2-F12 correlation energies:
 ================================
 Approx.                                    Singlet             Triplet             Ecorr            Total Energy
 DF-MP2                                -0.291024197242     -0.152308431438     -0.443332628680   -115.543524468344
 DF-MP2-F12/3*C(DX,FIX)                -0.329314245864     -0.156519403820     -0.485833649683   -115.586025489347
 DF-MP2-F12/3*C(FIX)                   -0.327116425130     -0.156237418126     -0.483353843256   -115.583545682919
 DF-MP2-F12/3C(FIX)                    -0.327059168591     -0.156372335727     -0.483431504318   -115.583623343982

 SCS-DF-MP2 energies (F_SING= 1.20000  F_TRIP= 0.62222  F_PARALLEL= 0.33333):
 ============================================================================
 SCS-DF-MP2                            -0.443998727363   -115.544190567027
 SCS-DF-MP2-F12/3*C(DX,FIX)            -0.492566946302   -115.592758785966
 SCS-DF-MP2-F12/3*C(FIX)               -0.489754103656   -115.589945943320
 SCS-DF-MP2-F12/3C(FIX)                -0.489769344539   -115.589961184203

 Symmetry restored.
 Symmetry transformation completed.

 Number of N-1 electron functions:               7
 Number of N-2 electron functions:              28
 Number of singly external CSFs:               659
 Number of doubly external CSFs:            355020
 Total number of CSFs:                      355680

 Length of J-op  integral file:             103.62 MB
 Length of K-op  integral file:             127.95 MB
 Length of 3-ext integral record:             0.00 MB

 Memory could be reduced to 24.20 Mwords without degradation in triples

 Integral transformation finished. Total CPU:   1.18 sec, npass=  1  Memory used:   7.45 MW

 Reference energy:                   -115.10019184

 Adding F12 terms to K(Cij), methodcc=6,  factor= 1.0

 ITER.      SQ.NORM     CORR.ENERGY   TOTAL ENERGY   ENERGY CHANGE        DEN1      VAR(S)    VAR(P)  DIIS     TIME  TIME/IT
   1      1.11758084    -0.45274406  -115.55293590    -0.00934484     0.00164424  0.15D-02  0.19D-02  1  1    14.54     1.14
   2      1.12498676    -0.45310844  -115.55330028    -0.00036437    -0.00903862  0.24D-04  0.23D-03  2  2    15.39     1.76
   3      1.12771470    -0.45328595  -115.55347779    -0.00017751    -0.00186437  0.15D-04  0.13D-04  3  3    16.23     1.48
   4      1.12866091    -0.45330386  -115.55349570    -0.00001792    -0.00059903  0.87D-06  0.12D-05  4  4    17.08     1.35
   5      1.12881685    -0.45330540  -115.55349724    -0.00000154    -0.00003791  0.24D-06  0.10D-06  5  5    17.92     1.27
   6      1.12885977    -0.45330304  -115.55349488     0.00000236    -0.00000428  0.36D-07  0.97D-08  6  6    18.76     1.22
   7      1.12887107    -0.45330216  -115.55349400     0.00000088    -0.00000301  0.40D-08  0.14D-08  6  1    19.61     1.18
   8      1.12887290    -0.45330223  -115.55349407    -0.00000006     0.00000034  0.69D-09  0.21D-09  6  3    20.46     1.15

 Norm of t1 vector:      0.04999561      S-energy:    -0.00000037      T1 diagnostic:  0.00944828
                                                                       D1 diagnostic:  0.01999682

 Adding energy correction from Wij-K(Fij), methodcc=6  factor= 1.0

  CCSD correlation energy              -0.453302229021
  MP2-F12 correction (uncoupled)       -0.038548460721
  C*T doubles correction               -0.001163880585
  f12b correction                       0.007099456635


 Total CPU time for triples:     13.91 sec


 RESULTS
 =======

  Reference energy                   -115.098838439885
  F12 singles correction               -0.001353399779

 F12 singles corrections added to reference energy

  New reference energy               -115.100191839664

  F12a singlet correction              -0.035795597505
  F12a triplet correction              -0.003916743801
  F12a total correction                -0.039712341306

 F12a corrections for ansatz F12/3C(FIX) added to CCSD energy

  CCSD-F12a singlet pair energy        -0.351137814305
  CCSD-F12a triplet pair energy        -0.141876390018
  CCSD-F12a correlation energy         -0.493014570327

  Triples (T) contribution             -0.016002535227
  Total correlation energy             -0.509017105553

  CCSD-F12a total energy             -115.593206409990
  CCSD[T]-F12a energy                -115.609761541279
  CCSD-T-F12a energy                 -115.608965612577
 !CCSD(T)-F12a total energy          -115.609208945217

 F12b corrections for ansatz F12/3C(FIX) added to CCSD(T)-F12a energy

  CCSD-F12b singlet pair energy        -0.344500396666
  CCSD-F12b triplet pair energy        -0.141414351023
  CCSD-F12b correlation energy         -0.485915113692

  Triples (T) contribution             -0.016002535227
  Total correlation energy             -0.501917648919

  CCSD-F12b total energy             -115.586106953356
  CCSD[T]-F12b energy                -115.602662084645
  CCSD-T-F12b energy                 -115.601866155943
 !CCSD(T)-F12b total energy          -115.602109488582

 Timing summary (sec):

 STEP                 CPU(USER)    SYS     CPU(TOT)    WALL
 Transformation          1.20      0.24      1.44      2.48
 CCSD iterations         6.77      0.79      7.56      9.21
 Triples                13.91      0.49     14.40     14.44
 MP2-F12                12.49      0.54     13.03     13.19
 F12b energy             0.69      0.05      0.74      0.74

 Program statistics:

 Available memory in ccsd:               499999650
 Min. memory needed in ccsd:               1149135
 Max. memory used in ccsd:                 1443104
 Max. memory used in cckext:               1888566 ( 9 integral passes)



 **********************************************************************************************************************************
 DATASETS  * FILE   NREC   LENGTH (MB)   RECORD NAMES
              1      20      386.09       500      610      700      900      950      970     1000      129      960     1100   
                                          VAR    BASINP    GEOM    SYMINP    ZMAT    AOBASIS   BASIS     P2S    ABASIS      S 
                                         1400     1410     1200     1210     1080     1600     1650     1300     1700     1380   
                                           T        V       H0       H01     AOSYM     SMH    MOLCAS    ERIS     OPER     JKOP   

              2       7        3.55       700     1000      520     2100     7360     7350     7000   
                                         GEOM     BASIS   MCVARS     RHF    F12ABS    EF12   

 PROGRAMS   *        TOTAL   CCSD(T)   MP2-F12    HF-SCF       INT
 CPU TIMES  *        58.15     35.09     12.96      3.06      6.91
 REAL TIME  *       333.60 SEC
 DISK USED  *         1.13 GB
 **********************************************************************************************************************************
 SETTING XXX            =    "MMM"
 SETTING POINT          =        60.00000000                                  

 *** ### CH3OH


 XXX       RCO          ROH          RCH1         RCH2         RCH3           ACOH           AOCH1          AOCH2          AOCH3         AHH1           AHH2           AHH3            ENERGY       POINT
 "MMM"   1.42077677   0.96013932   1.09171752   1.08440070   1.09171752   109.62930637   111.65221523   107.18733878   111.65221523   61.43364279   180.00000000   298.56635721   -115.60920895   60.0000
                                                  

 CCSD(T)-F12/cc-pVTZ-F12 energy=   -115.602109488582

     CCSD(T)-F12         MP2-F12          HF-SCF
   -115.60210949   -115.58368852   -115.09883844
 **********************************************************************************************************************************
 Molpro calculation terminated
