
 Primary working directories    : /tmpdir/job/2955689.undefined/molpro.BeBmvqI7ww
 Secondary working directories  : /tmpdir/job/2955689.undefined/molpro.BeBmvqI7ww
 Wavefunction directory         : /home/zcaposm/wfu/
 Main file repository           : /tmpdir/job/2955689.undefined/molpro.BeBmvqI7ww/

 id        : uclcc

 Nodes                         nprocs
 node-d00a-085.myriad.ucl.ac.uk    1

 Using customized tuning parameters: mindgm=1; mindgv=20; mindgc=4; mindgr=1; noblas=0; minvec=7
 default implementation of scratch files=df  


 Variables initialized (945), CPU time= 0.00 sec
 ***,Methanol Ground State Energy with CCSD(T)-F12 and cc-pVTZ-F12
 memory,500,m;
 
 geometry={angstrom
 c
 o , 1, rco
 h , 2, roh, 1, acoh
 h1, 1, rch1, 2, aoch1  3  ahh1
 h2, 1, rch2, 2, aoch2, 3, ahh2
 h3, 1, rch3, 2, aoch3, 3, ahh3
 }
 
                                                ! Specify the initial values of the internal coordinates (in Angstroms and degrees)
 
 rco= 1.42077677
 roh= 0.96013932
 rch1= 1.0917361053150345
 rch2= 1.0844015856848523
 rch3= 1.0916973708658724
 acoh= 108.12930637
 aoch1= 111.6432627592834
 aoch2= 107.18785966936414
 aoch3= 111.66085553699497
 ahh1=62.23364279
 ahh2=180.8
 ahh3=299.36635721
 
                                                                                 ! Use the cc-pVTZ-F12 basis set
 basis=cc-pVTZ-F12
 
 hf
 
                                                                                 ! Use explicitly correlated F12 methods
                                                                            ! First, MP2-F12 (useful for initial electronic energy)
 {mp2-f12}
 
                                                                        ! If desired, perform CCSD(T)-F12 for more accurate results
 {ccsd(t)-f12}
 
                                                                                 ! Output the energy
 xxx = "mmm"
 point = 117
 text ### CH3OH
 table,xxx,rco,roh,rch1,rch2,rch3,acoh,aoch1,aoch2,aoch3,ahh1,ahh2,ahh3,energy,point
 DIGITS, 0, 8, 8, 8, 8, 8, 8, 8, 8, 8,  8,  8,  8, 8, 4
 save,CH3OH_MEP_MP2_117.dat,new
 
 Commands  initialized (802), CPU time= 0.01 sec, 659 directives.
 Default parameters read. Elapsed time= 0.86 sec

 Checking input...
 Passed
1


                                         ***  PROGRAM SYSTEM MOLPRO  ***
                                       Copyright, TTI GmbH Stuttgart, 2015
                                    Version 2020.1 linked Oct  6 2020 12:04:11


 **********************************************************************************************************************************
 LABEL *   Methanol Ground State Energy with CCSD(T)-F12 and cc-pVTZ-F12                 
  64 bit serial version                                                                  DATE: 08-Oct-24          TIME: 17:40:02  
 **********************************************************************************************************************************

 SHA1:             8c27446f6450a7499e38f603e13c65f775101d37
 **********************************************************************************************************************************

 Memory per process:       500 MW
 Total memory per node:    500 MW

 GA preallocation disabled
 GA check disabled

 Variable memory set to 500.0 MW

 SETTING RCO            =         1.42077677                                  
 SETTING ROH            =         0.96013932                                  
 SETTING RCH1           =         1.09173611                                  
 SETTING RCH2           =         1.08440159                                  
 SETTING RCH3           =         1.09169737                                  
 SETTING ACOH           =       108.12930637                                  
 SETTING AOCH1          =       111.64326276                                  
 SETTING AOCH2          =       107.18785967                                  
 SETTING AOCH3          =       111.66085554                                  
 SETTING AHH1           =        62.23364279                                  
 SETTING AHH2           =       180.80000000                                  
 SETTING AHH3           =       299.36635721                                  
 SETTING BASIS          =    CC-PVTZ-F12


 Recomputing integrals since basis changed


 Using spherical harmonics

 Library entry C      S cc-pVTZ-F12          selected for orbital group  1
 Library entry C      P cc-pVTZ-F12          selected for orbital group  1
 Library entry C      D cc-pVTZ-F12          selected for orbital group  1
 Library entry C      F cc-pVTZ-F12          selected for orbital group  1
 Library entry O      S cc-pVTZ-F12          selected for orbital group  2
 Library entry O      P cc-pVTZ-F12          selected for orbital group  2
 Library entry O      D cc-pVTZ-F12          selected for orbital group  2
 Library entry O      F cc-pVTZ-F12          selected for orbital group  2
 Library entry H      S cc-pVTZ-F12          selected for orbital group  3
 Library entry H      P cc-pVTZ-F12          selected for orbital group  3
 Library entry H      D cc-pVTZ-F12          selected for orbital group  3


 PROGRAM * SEWARD (Integral evaluation for generally contracted gaussian basis sets)     Author: Roland Lindh, 1990

 Geometry written to block  1 of record 700

 Orientation using atomic masses  
 Molecule type: Asymmetric top
 Rotational constants:      23.9585454     24.8081606    128.7816475 GHz  (calculated with average atomic masses)

 Point group  C1  



 ATOMIC COORDINATES

 NR  ATOM    CHARGE       X              Y              Z

   1  C       6.00    0.000056131    0.025185159   -1.376591754
   2  O       8.00   -0.000026152   -0.122051273    1.304247025
   3  H       1.00    0.001056878    1.568720424    1.962531574
   4  H1      1.00    1.697474242    0.957846260   -2.087382409
   5  H2      1.00   -0.028508281   -1.896158082   -2.088585472
   6  H3      1.00   -1.670276594    1.006839841   -2.085357566

 Bond lengths in Bohr (Angstrom)

 1-2  2.684878979  1-4  2.063082239  1-5  2.049222006  1-6  2.063009042  2-3  1.814400356
     ( 1.420776770)     ( 1.091736105)     ( 1.084401586)     ( 1.091697371)     ( 0.960139320)

 Bond angles

  1-2-3  108.12930637   2-1-4  111.64326276   2-1-5  107.18785967   2-1-6  111.66085554

  4-1-5  108.39850993   4-1-6  109.43122677   5-1-6  108.39029283

 NUCLEAR CHARGE:                   18
 NUMBER OF PRIMITIVE AOS:         228
 NUMBER OF SYMMETRY AOS:          206
 NUMBER OF CONTRACTIONS:          178   (  178A   )
 NUMBER OF INNER CORE ORBITALS:     0   (    0A   )
 NUMBER OF OUTER CORE ORBITALS:     2   (    2A   )
 NUMBER OF VALENCE ORBITALS:       12   (   12A   )


 NUCLEAR REPULSION ENERGY   40.34553130

 Eigenvalues of metric

         1 0.879E-04 0.183E-03 0.309E-03 0.323E-03 0.460E-03 0.493E-03 0.560E-03 0.570E-03


 Contracted 2-electron integrals neglected if value below      1.0D-11
 AO integral compression algorithm  1   Integral accuracy      1.0D-11

     599.261 MB (compressed) written to integral file ( 50.3%)


 NUMBER OF SORTED TWO-ELECTRON INTEGRALS:  126906346.     BUFFER LENGTH:  32768
 NUMBER OF SEGMENTS:   8  SEGMENT LENGTH:   15999503      RECORD LENGTH: 524288

 Memory used in sort:      16.56 MW

 SORT1 READ   149034713. AND WROTE   124654541. INTEGRALS IN    360 RECORDS. CPU TIME:     2.39 SEC, REAL TIME:    26.85 SEC
 SORT2 READ   124654541. AND WROTE   126906346. INTEGRALS IN   2286 RECORDS. CPU TIME:     1.98 SEC, REAL TIME:    32.99 SEC

 FILE SIZES:   FILE 1:   630.5 MBYTE,  FILE 4:  1510.0 MBYTE,   TOTAL:   2140.5 MBYTE

 OPERATOR DM      FOR CENTER  0  COORDINATES:    0.000000    0.000000    0.000000


 **********************************************************************************************************************************
 DATASETS  * FILE   NREC   LENGTH (MB)   RECORD NAMES
              1      19      553.68       500      610      700      900      950      970     1000      129      960     1100   
                                          VAR    BASINP    GEOM    SYMINP    ZMAT    AOBASIS   BASIS     P2S    ABASIS      S 
                                         1400     1410     1200     1210     1080     1600     1650     1300     1700   
                                           T        V       H0       H01     AOSYM     SMH    MOLCAS    ERIS     OPER   

 PROGRAMS   *        TOTAL       INT
 CPU TIMES  *         9.38      9.15
 REAL TIME  *        80.40 SEC
 DISK USED  *         2.14 GB
 **********************************************************************************************************************************


 PROGRAM * RHF-SCF (CLOSED SHELL)       Authors: W. Meyer, H.-J. Werner


 NUMBER OF ELECTRONS:       9+    9-    SPACE SYMMETRY=1    SPIN SYMMETRY: Singlet 
 CONVERGENCE THRESHOLDS:    1.00E-05 (Density)    1.00E-07 (Energy)
 MAX. NUMBER OF ITERATIONS:       60
 INTERPOLATION TYPE:            DIIS
 INTERPOLATION STEPS:              2 (START)      1 (STEP)
 LEVEL SHIFTS:                  0.00 (CLOSED)  0.00 (OPEN) 



 Orbital guess generated from atomic densities. Full valence occupancy:   14

 Molecular orbital dump at record        2100.2

 Initial occupancy:   9

 ITERATION    DDIFF          GRAD             ENERGY        2-EL.EN.            DIPOLE MOMENTS         DIIS   ORB.
    1      0.000D+00      0.000D+00      -115.06237553    164.484228   -0.00001    0.90425   -0.47795    0    start
    2      0.000D+00      0.506D-02      -115.09072685    161.902326   -0.00027    0.49652   -0.30366    1    diag
    3      0.480D-02      0.277D-02      -115.09821246    163.165430   -0.00014    0.59987   -0.39688    2    diag
    4      0.163D-02      0.546D-03      -115.09874480    162.988868   -0.00014    0.59476   -0.39232    3    diag
    5      0.436D-03      0.110D-03      -115.09877920    163.000342   -0.00014    0.59078   -0.39714    4    diag
    6      0.121D-03      0.205D-04      -115.09878076    162.998120   -0.00014    0.59093   -0.39793    5    diag
    7      0.349D-04      0.434D-05      -115.09878084    162.997737   -0.00014    0.59075   -0.39820    6    diag
    8      0.877D-05      0.114D-05      -115.09878084    162.998082   -0.00014    0.59074   -0.39822    0    orth

 Final occupancy:   9

 !RHF STATE  1.1 Energy              -115.098780840074
 Nuclear energy                        40.34553130
 One-electron energy                 -236.94335327
 Two-electron energy                   81.49904114
 Virial quotient                       -1.00101601
 !RHF STATE  1.1 Dipole moment         -0.00014133     0.59074023    -0.39821734
 Dipole moment /Debye                  -0.00035920     1.50141354    -1.01210123

 Orbital energies:

         1.1          2.1          3.1          4.1          5.1          6.1          7.1          8.1          9.1         10.1
    -20.556342   -11.269759    -1.356925    -0.926369    -0.690809    -0.621560    -0.594388    -0.504325    -0.452159     0.054650

        11.1
      0.065009


 HOMO      9.1    -0.452159 =     -12.3039eV
 LUMO     10.1     0.054650 =       1.4871eV
 LUMO-HOMO         0.506808 =      13.7910eV


 **********************************************************************************************************************************
 DATASETS  * FILE   NREC   LENGTH (MB)   RECORD NAMES
              1      19      553.68       500      610      700      900      950      970     1000      129      960     1100   
                                          VAR    BASINP    GEOM    SYMINP    ZMAT    AOBASIS   BASIS     P2S    ABASIS      S 
                                         1400     1410     1200     1210     1080     1600     1650     1300     1700   
                                           T        V       H0       H01     AOSYM     SMH    MOLCAS    ERIS     OPER   

              2       4        3.48       700     1000      520     2100   
                                         GEOM     BASIS   MCVARS     RHF  

 PROGRAMS   *        TOTAL    HF-SCF       INT
 CPU TIMES  *        17.45      8.06      9.15
 REAL TIME  *        91.95 SEC
 DISK USED  *         2.14 GB
 **********************************************************************************************************************************


 PROGRAM * MP2 (Closed-shell)     Authors: C. Hampel, H.-J. Werner, 1991, M. Deegan, P.J. Knowles, 1992

                                   MP2-F12 implementation by H.-J. Werner, 2007

                   Density fitting integral evaluation by F.R. Manby, 2003,2007, G. Knizia, 2010


 Basis set AUG-CC-PVTZ/JKFIT generated.  Number of basis functions:   392 
 Basis set CC-PVTZ-F12/OPTRI generated.  Number of basis functions:   314 
 Basis set AUG-CC-PVTZ/MP2FIT generated. Number of basis functions:   396 

 Convergence thresholds:  THRVAR = 1.00D-08  THRDEN = 1.00D-06

 Number of core orbitals:           2 (   2 )
 Number of closed-shell orbitals:   7 (   7 )
 Number of external orbitals:     169 ( 169 )

 Molecular orbitals read from record     2100.2  Type=RHF/CANONICAL (state 1.1)

 MP2-F12 correlation treatment (H.-J. Werner, 2006)
 ==================================================

 Using MP2-F12 with ansatz 3C(FIX)

 Using projected zeroth-order Hamiltonian (+Z)

 FOCKRIB=T FOCKRIC=T FOCKRIP=T CABSP=T CABSA=T CABSK=T CABSF=T GBC=F EBC=F DMAT=T NOFIK=T NOPAO=1 SOLVE=-1  USEPAO=0
 EXCH_A= T EXCH_B= F EXCH_C= F EXCH_P= F

 Geminal basis:    OPTFULL  GEM_TYPE=SLATER  BETA=1.0  NGEM=6

 Optimizing Gaussian exponents for each gem_beta

 Geminal optimization for beta= 1.0000
 Weight function:   m=0, omega= 1.4646

 Augmented Hessian optimization of geminal fit. Trust ratio= 0.40000
 Convergence reached after   2 iterations. Final gradient= 8.66D-16, Step= 4.23D-06, Delta= 1.28D-09

 Alpha:                 0.19532     0.81920     2.85917     9.50073    35.69989   197.79328
 Coeff:                 0.27070     0.30552     0.18297     0.10986     0.06810     0.04224


 All pairs explicitly correlated. Number of r12-pairs:           28

 Excluding core orbitals from MO domains

 AO(A)-basis ORBITAL           loaded. Number of functions:     178
 RI(R)-basis CC-PVTZ-F12/OPTRI loaded. Number of functions:     314
 DF-basis AUG-CC-PVTZ/JKFIT    loaded. Number of functions:     392

 Screening thresholds:   THRAO=  1.00D-10  THRMO=  1.00D-09  THRPROD=  1.00D-09
                         THRSW=  1.00D-05  THROV=  1.00D-12  THRAOF12= 1.00D-08

 CPU time for Fock operators                      1.53 sec

 Construction of ABS:
 Smallest eigenvalue of S          4.36E-04  (threshold= 1.00E-08)
 Ratio eigmin/eigmax               5.56E-05  (threshold= 1.00E-09)
 Smallest eigenvalue of S kept     4.36E-04  (threshold= 4.36E-04, 0 functions deleted, 314 kept)

 Construction of CABS:
 Smallest eigenvalue of S          7.26E-07  (threshold= 1.00E-08)
 Ratio eigmin/eigmax               7.26E-07  (threshold= 1.00E-09)
 Smallest eigenvalue of S kept     7.26E-07  (threshold= 7.26E-07, 0 functions deleted, 314 kept)

 CPU time for CABS singles                        0.05 sec

 CABS-singles contribution of  -0.00135364 patched into reference energy.
 New reference energy        -115.10013448

 AO(A)-basis ORBITAL           loaded. Number of functions:     178
 RI(R)-basis CC-PVTZ-F12/OPTRI loaded. Number of functions:     314
 DF-basis AUG-CC-PVTZ/MP2FIT   loaded. Number of functions:     396

 Screening thresholds:   THRAO=  1.00D-10  THRMO=  1.00D-09  THRPROD=  1.00D-09
                         THRSW=  1.00D-05  THROV=  1.00D-12  THRAOF12= 1.00D-08

 CPU time for 3-index integral evaluation         3.37 sec
 CPU time for first  half transformation          0.27 sec ( 9144.6 MFLOP/sec)
 CPU time for second half transformation          0.03 sec ( 2072.3 MFLOP/sec)
 CPU time for fitting                             0.01 sec (******* MFLOP/sec)
 CPU time for tilde quantities                    0.04 sec (37761.3 MFLOP/sec)
 CPU time for assembly                            0.21 sec (58826.6 MFLOP/sec)
 CPU time for tranop_f12                          0.24 sec (66084.3 MFLOP/sec)
 CPU time for f12 integrals (total)               4.58 sec, Elapsed time:      5.18 sec
 CPU time for f12 matrices (total)                0.12 sec, Elapsed time:      0.24 sec

 Diagonal F12 approximation with fixed coefficients:  TSING= 0.500,  TTRIP= 0.250 (scaled by -1/beta)

 DF-MP2-F12 energy corrections:
 ==============================
 Approx.                                    Singlet             Triplet             Total
 DF-MP2-F12/3*C(DX,FIX)                -0.038287482019     -0.004212636406     -0.042500118424
 DF-MP2-F12/3*C(FIX)                   -0.036088659795     -0.003930892719     -0.040019552515
 DF-MP2-F12/3C(FIX)                    -0.036031362419     -0.004065866360     -0.040097228779

 DF-MP2-F12 correlation energies:
 ================================
 Approx.                                    Singlet             Triplet             Ecorr            Total Energy
 DF-MP2                                -0.291095465021     -0.152363644203     -0.443459109223   -115.543593587426
 DF-MP2-F12/3*C(DX,FIX)                -0.329382947039     -0.156576280608     -0.485959227647   -115.586093705851
 DF-MP2-F12/3*C(FIX)                   -0.327184124816     -0.156294536922     -0.483478661738   -115.583613139941
 DF-MP2-F12/3C(FIX)                    -0.327126827440     -0.156429510562     -0.483556338002   -115.583690816205

 SCS-DF-MP2 energies (F_SING= 1.20000  F_TRIP= 0.62222  F_PARALLEL= 0.33333):
 ============================================================================
 SCS-DF-MP2                            -0.444118603306   -115.544253081509
 SCS-DF-MP2-F12/3*C(DX,FIX)            -0.492684777714   -115.592819255917
 SCS-DF-MP2-F12/3*C(FIX)               -0.489870883864   -115.590005362067
 SCS-DF-MP2-F12/3C(FIX)                -0.489886110611   -115.590020588814
 Symmetry transformation completed.

 Number of N-1 electron functions:               7
 Number of N-2 electron functions:              28
 Number of singly external CSFs:              1183
 Number of doubly external CSFs:            700336
 Total number of CSFs:                      701520

 Length of J-op  integral file:             104.98 MB
 Length of K-op  integral file:             138.67 MB

 Integral transformation finished. Total CPU:   1.36 sec, npass=  1  Memory used:   2.18 MW

 ITER.      SQ.NORM     CORR.ENERGY   TOTAL ENERGY   ENERGY CHANGE     VAR   MIC
   1      1.00000000    -0.44352551  -115.54365999    -0.44352551  0.00D+00   0
   2      1.11473551    -0.44352551  -115.54365999     0.00000000 -0.20D-14   0

 Solving MP2-F12 equations

   1      1.11469920    -0.48286469  -115.58299917    -0.03933918 -0.37D-04   0
   2      1.11469920    -0.48362134  -115.58375581    -0.00075665  0.64D-18   0
   3      1.11469920    -0.48362134  -115.58375581    -0.00000000 -0.15D-18   0

 CPU TIME FOR ITERATIVE MP2:    0.10 SEC


 MP2-F12 energy corrections:
 ===========================
 Approx.                                    Singlet             Triplet             Total
 MP2-F12/3*C(DX,FIX)                   -0.038287482019     -0.004212636406     -0.042500118424
 MP2-F12/3*C(FIX)                      -0.036088659795     -0.003930892719     -0.040019552515
 MP2-F12/3C(FIX)                       -0.036028661927     -0.004067162850     -0.040095824777

 MP2-F12 correlation energies:
 =============================
 Approx.                                    Singlet             Triplet             Ecorr            Total Energy
 MP2                                   -0.291278779629     -0.152246730603     -0.443525510232   -115.543659988435
 MP2-F12/3*C(DX,FIX)                   -0.329566261648     -0.156459367008     -0.486025628656   -115.586160106859
 MP2-F12/3*C(FIX)                      -0.327367439424     -0.156177623322     -0.483545062746   -115.583679540950
 MP2-F12/3C(FIX)                       -0.327307441556     -0.156313893453     -0.483621335008   -115.583755813212

 SCS-MP2 energies (F_SING= 1.20000  F_TRIP= 0.62222  F_PARALLEL= 0.33333):
 =========================================================================
 SCS-MP2                               -0.444265834597   -115.544400312800
 SCS-MP2-F12/3*C(DX,FIX)               -0.492832009005   -115.592966487208
 SCS-MP2-F12/3*C(FIX)                  -0.490018115154   -115.590152593357
 SCS-MP2-F12/3C(FIX)                   -0.490030908015   -115.590165386218


  Reference energy                   -115.098780840074
  F12 singles correction               -0.001353638129

 F12 singles corrections added to reference energy

  New reference energy               -115.100134478203

  F12/3C(F) singlet correction         -0.036028661927
  F12/3C(F) triplet correction         -0.004067162850
  F12/3C(F) total correction           -0.040095824777
  MP2-F12/3C(F) singlet pair energy    -0.327307441556
  MP2-F12/3C(F) triplet pair energy    -0.156313893453
  MP2-F12/3C(F) correlation energy     -0.483621335008

 !MP2-F12/3C(F) total energy         -115.583755813212


 **********************************************************************************************************************************
 DATASETS  * FILE   NREC   LENGTH (MB)   RECORD NAMES
              1      20      564.86       500      610      700      900      950      970     1000      129      960     1100   
                                          VAR    BASINP    GEOM    SYMINP    ZMAT    AOBASIS   BASIS     P2S    ABASIS      S 
                                         1400     1410     1200     1210     1080     1600     1650     1300     1700     1380   
                                           T        V       H0       H01     AOSYM     SMH    MOLCAS    ERIS     OPER     JKOP   

              2       7        4.13       700     1000      520     2100     7360     7350     7000   
                                         GEOM     BASIS   MCVARS     RHF    F12ABS    EF12   

 PROGRAMS   *        TOTAL   MP2-F12    HF-SCF       INT
 CPU TIMES  *        25.44      7.99      8.06      9.15
 REAL TIME  *       101.96 SEC
 DISK USED  *         2.14 GB
 **********************************************************************************************************************************


 PROGRAM * CCSD (Closed-shell coupled cluster)     Authors: C. Hampel, H.-J. Werner, 1991, M. Deegan, P.J. Knowles, 1992

                                  CCSD-F12 implementation by  H.-J. Werner, 2007

                   Density fitting integral evaluation by F.R. Manby, 2003,2007, G. Knizia, 2010



 Convergence thresholds:  THRVAR = 1.00D-08  THRDEN = 1.00D-06

 CCSD(T)     terms to be evaluated (factor= 1.000)


 Number of core orbitals:           2 (   2 )
 Number of closed-shell orbitals:   7 (   7 )
 Number of external orbitals:     169 ( 169 )

 Molecular orbitals read from record     2100.2  Type=RHF/CANONICAL (state 1.1)

 MP2-F12 correlation treatment (H.-J. Werner, 2006)
 ==================================================

 Using MP2-F12 with ansatz 3C(FIX)

 Using projected zeroth-order Hamiltonian (+Z)

 FOCKRIB=T FOCKRIC=T FOCKRIP=T CABSP=T CABSA=T CABSK=T CABSF=T GBC=F EBC=F DMAT=T NOFIK=T NOPAO=1 SOLVE=-1  USEPAO=0
 EXCH_A= T EXCH_B= F EXCH_C= F EXCH_P= F

 Geminal basis:    OPTFULL  GEM_TYPE=SLATER  BETA=1.0  NGEM=6

 Optimizing Gaussian exponents for each gem_beta

 Geminal optimization for beta= 1.0000
 Weight function:   m=0, omega= 1.4646

 Augmented Hessian optimization of geminal fit. Trust ratio= 0.40000
 Convergence reached after   2 iterations. Final gradient= 8.66D-16, Step= 4.23D-06, Delta= 1.28D-09

 Alpha:                 0.19532     0.81920     2.85917     9.50073    35.69989   197.79328
 Coeff:                 0.27070     0.30552     0.18297     0.10986     0.06810     0.04224


 All pairs explicitly correlated. Number of r12-pairs:           28

 Excluding core orbitals from MO domains

 AO(A)-basis ORBITAL           loaded. Number of functions:     178
 RI(R)-basis CC-PVTZ-F12/OPTRI loaded. Number of functions:     314
 DF-basis AUG-CC-PVTZ/JKFIT    loaded. Number of functions:     392

 Screening thresholds:   THRAO=  1.00D-10  THRMO=  1.00D-09  THRPROD=  1.00D-09
                         THRSW=  1.00D-05  THROV=  1.00D-12  THRAOF12= 1.00D-08

 CPU time for Fock operators                      1.53 sec

 Construction of ABS:
 Smallest eigenvalue of S          4.36E-04  (threshold= 1.00E-08)
 Ratio eigmin/eigmax               5.56E-05  (threshold= 1.00E-09)
 Smallest eigenvalue of S kept     4.36E-04  (threshold= 4.36E-04, 0 functions deleted, 314 kept)

 Construction of CABS:
 Smallest eigenvalue of S          7.26E-07  (threshold= 1.00E-08)
 Ratio eigmin/eigmax               7.26E-07  (threshold= 1.00E-09)
 Smallest eigenvalue of S kept     7.26E-07  (threshold= 7.26E-07, 0 functions deleted, 314 kept)

 CPU time for CABS singles                        0.04 sec

 CABS-singles contribution of  -0.00135364 patched into reference energy.
 New reference energy        -115.10013448

 AO(A)-basis ORBITAL           loaded. Number of functions:     178
 RI(R)-basis CC-PVTZ-F12/OPTRI loaded. Number of functions:     314
 DF-basis AUG-CC-PVTZ/MP2FIT   loaded. Number of functions:     396

 Screening thresholds:   THRAO=  1.00D-10  THRMO=  1.00D-09  THRPROD=  1.00D-09
                         THRSW=  1.00D-05  THROV=  1.00D-12  THRAOF12= 1.00D-08

 CPU time for 3-index integral evaluation         3.36 sec
 CPU time for first  half transformation          0.35 sec ( 7054.4 MFLOP/sec)
 CPU time for second half transformation          0.02 sec ( 3108.5 MFLOP/sec)
 CPU time for sorting                             0.01 sec
 CPU time for fitting                             0.02 sec (56971.3 MFLOP/sec)
 CPU time for tilde quantities                    0.02 sec (75522.6 MFLOP/sec)
 CPU time for assembly                            0.21 sec (58826.6 MFLOP/sec)
 CPU time for tranop_f12                          0.24 sec (66084.3 MFLOP/sec)
 CPU time for f12 integrals (total)               4.66 sec, Elapsed time:      5.07 sec
 CPU time for f12 matrices (total)                0.11 sec, Elapsed time:      0.15 sec

 Diagonal F12 approximation with fixed coefficients:  TSING= 0.500,  TTRIP= 0.250 (scaled by -1/beta)

 DF-MP2-F12 energy corrections:
 ==============================
 Approx.                                    Singlet             Triplet             Total
 DF-MP2-F12/3*C(DX,FIX)                -0.038287482019     -0.004212636406     -0.042500118424
 DF-MP2-F12/3*C(FIX)                   -0.036088659795     -0.003930892719     -0.040019552515
 DF-MP2-F12/3C(FIX)                    -0.036031362419     -0.004065866360     -0.040097228779

 DF-MP2-F12 correlation energies:
 ================================
 Approx.                                    Singlet             Triplet             Ecorr            Total Energy
 DF-MP2                                -0.291095465021     -0.152363644203     -0.443459109223   -115.543593587426
 DF-MP2-F12/3*C(DX,FIX)                -0.329382947039     -0.156576280608     -0.485959227647   -115.586093705851
 DF-MP2-F12/3*C(FIX)                   -0.327184124816     -0.156294536922     -0.483478661738   -115.583613139941
 DF-MP2-F12/3C(FIX)                    -0.327126827440     -0.156429510562     -0.483556338002   -115.583690816205

 SCS-DF-MP2 energies (F_SING= 1.20000  F_TRIP= 0.62222  F_PARALLEL= 0.33333):
 ============================================================================
 SCS-DF-MP2                            -0.444118603306   -115.544253081509
 SCS-DF-MP2-F12/3*C(DX,FIX)            -0.492684777714   -115.592819255917
 SCS-DF-MP2-F12/3*C(FIX)               -0.489870883864   -115.590005362067
 SCS-DF-MP2-F12/3C(FIX)                -0.489886110611   -115.590020588814
 Symmetry transformation completed.

 Number of N-1 electron functions:               7
 Number of N-2 electron functions:              28
 Number of singly external CSFs:              1183
 Number of doubly external CSFs:            700336
 Total number of CSFs:                      701520

 Length of J-op  integral file:             105.23 MB
 Length of K-op  integral file:             138.67 MB
 Length of 3-ext integral record:             0.00 MB

 Memory could be reduced to 48.01 Mwords without degradation in triples

 Integral transformation finished. Total CPU:   3.21 sec, npass=  1  Memory used:  24.86 MW

 Reference energy:                   -115.10013448

 Adding F12 terms to K(Cij), methodcc=6,  factor= 1.0

 ITER.      SQ.NORM     CORR.ENERGY   TOTAL ENERGY   ENERGY CHANGE        DEN1      VAR(S)    VAR(P)  DIIS     TIME  TIME/IT
   1      1.11762304    -0.45285831  -115.55299279    -0.00933280     0.00166850  0.15D-02  0.19D-02  1  1    12.62     6.10
   2      1.12503263    -0.45322014  -115.55335462    -0.00036183    -0.00904639  0.24D-04  0.23D-03  2  2    15.43     5.07
   3      1.12776213    -0.45339755  -115.55353203    -0.00017742    -0.00186511  0.15D-04  0.13D-04  3  3    18.22     4.39
   4      1.12870937    -0.45341543  -115.55354991    -0.00001788    -0.00060017  0.86D-06  0.12D-05  4  4    21.02     4.05
   5      1.12886491    -0.45341699  -115.55355147    -0.00000156    -0.00003791  0.23D-06  0.10D-06  5  5    23.85     3.85
   6      1.12890749    -0.45341464  -115.55354911     0.00000235    -0.00000422  0.36D-07  0.96D-08  6  6    26.64     3.71
   7      1.12891861    -0.45341376  -115.55354824     0.00000087    -0.00000298  0.39D-08  0.14D-08  6  1    29.44     3.61
   8      1.12892041    -0.45341382  -115.55354830    -0.00000006     0.00000033  0.67D-09  0.20D-09  6  3    32.24     3.53

 Norm of t1 vector:      0.05000719      S-energy:     0.00000010      T1 diagnostic:  0.00945047
                                                                       D1 diagnostic:  0.02003556

 Adding energy correction from Wij-K(Fij), methodcc=6  factor= 1.0

  CCSD correlation energy              -0.453413823150
  MP2-F12 correction (uncoupled)       -0.038545564158
  C*T doubles correction               -0.001164888945
  f12b correction                       0.007098774489


 Total CPU time for triples:     35.28 sec


 RESULTS
 =======

  Reference energy                   -115.098780840074
  F12 singles correction               -0.001353638129

 F12 singles corrections added to reference energy

  New reference energy               -115.100134478203

  F12a singlet correction              -0.035791881376
  F12a triplet correction              -0.003918571727
  F12a total correction                -0.039710453102

 F12a corrections for ansatz F12/3C(FIX) added to CCSD energy

  CCSD-F12a singlet pair energy        -0.351209396974
  CCSD-F12a triplet pair energy        -0.141914982484
  CCSD-F12a correlation energy         -0.493124276252

  Triples (T) contribution             -0.016014523016
  Total correlation energy             -0.509138799268

  CCSD-F12a total energy             -115.593258754456
  CCSD[T]-F12a energy                -115.609826372685
  CCSD-T-F12a energy                 -115.609029545296
 !CCSD(T)-F12a total energy          -115.609273277471

 F12b corrections for ansatz F12/3C(FIX) added to CCSD(T)-F12a energy

  CCSD-F12b singlet pair energy        -0.344572703381
  CCSD-F12b triplet pair energy        -0.141452901588
  CCSD-F12b correlation energy         -0.486025501763

  Triples (T) contribution             -0.016014523016
  Total correlation energy             -0.502040024779

  CCSD-F12b total energy             -115.586159979967
  CCSD[T]-F12b energy                -115.602727598196
  CCSD-T-F12b energy                 -115.601930770807
 !CCSD(T)-F12b total energy          -115.602174502982

 Timing summary (sec):

 STEP                 CPU(USER)    SYS     CPU(TOT)    WALL
 Transformation          3.26      0.72      3.98      5.67
 CCSD iterations        22.55      2.05     24.60     28.47
 Triples                35.28      1.09     36.37     37.15
 MP2-F12                 6.44      0.46      6.90      7.13
 F12b energy             2.28      0.13      2.41      2.52

 Program statistics:

 Available memory in ccsd:               499999646
 Min. memory needed in ccsd:               2228017
 Max. memory used in ccsd:                 2807120
 Max. memory used in cckext:               2027429 ( 9 integral passes)



 **********************************************************************************************************************************
 DATASETS  * FILE   NREC   LENGTH (MB)   RECORD NAMES
              1      20      700.81       500      610      700      900      950      970     1000      129      960     1100   
                                          VAR    BASINP    GEOM    SYMINP    ZMAT    AOBASIS   BASIS     P2S    ABASIS      S 
                                         1400     1410     1200     1210     1080     1600     1650     1300     1700     1380   
                                           T        V       H0       H01     AOSYM     SMH    MOLCAS    ERIS     OPER     JKOP   

              2       7        4.13       700     1000      520     2100     7360     7350     7000   
                                         GEOM     BASIS   MCVARS     RHF    F12ABS    EF12   

 PROGRAMS   *        TOTAL   CCSD(T)   MP2-F12    HF-SCF       INT
 CPU TIMES  *        95.28     69.83      7.99      8.06      9.15
 REAL TIME  *       183.06 SEC
 DISK USED  *         2.14 GB
 **********************************************************************************************************************************
 SETTING XXX            =    "MMM"
 SETTING POINT          =       117.00000000                                  

 *** ### CH3OH


 XXX       RCO          ROH          RCH1         RCH2         RCH3           ACOH           AOCH1          AOCH2          AOCH3         AHH1           AHH2           AHH3            ENERGY        POINT
 "MMM"   1.42077677   0.96013932   1.09173611   1.08440159   1.09169737   108.12930637   111.64326276   107.18785967   111.66085554   62.23364279   180.80000000   299.36635721   -115.60927328   117.0000
                                                  

 CCSD(T)-F12/cc-pVTZ-F12 energy=   -115.602174502982

     CCSD(T)-F12         MP2-F12          HF-SCF
   -115.60217450   -115.58375581   -115.09878084
 **********************************************************************************************************************************
 Molpro calculation terminated
