
 Primary working directories    : /tmpdir/job/2955573.undefined/molpro.WgGyf4Wnza
 Secondary working directories  : /tmpdir/job/2955573.undefined/molpro.WgGyf4Wnza
 Wavefunction directory         : /home/zcaposm/wfu/
 Main file repository           : /tmpdir/job/2955573.undefined/molpro.WgGyf4Wnza/

 id        : uclcc

 Nodes                         nprocs
 node-d00a-131.myriad.ucl.ac.uk    1

 Using customized tuning parameters: mindgm=1; mindgv=20; mindgc=4; mindgr=1; noblas=0; minvec=7
 default implementation of scratch files=df  


 Variables initialized (945), CPU time= 0.00 sec
 ***,Methanol Ground State Energy with CCSD(T)-F12 and cc-pVTZ-F12
 memory,500,m;
 
 geometry={angstrom
 c
 o , 1, rco
 h , 2, roh, 1, acoh
 h1, 1, rch1, 2, aoch1  3  ahh1
 h2, 1, rch2, 2, aoch2, 3, ahh2
 h3, 1, rch3, 2, aoch3, 3, ahh3
 }
 
                                                ! Specify the initial values of the internal coordinates (in Angstroms and degrees)
 
 rco= 1.44577677
 roh= 0.96013932
 rch1= 1.091717515605
 rch2= 1.08440070258
 rch3= 1.091717515605
 acoh= 108.12930637
 aoch1= 111.6522152299
 aoch2= 107.18733878260001
 aoch3= 111.6522152299
 ahh1=61.43364279
 ahh2=180.0
 ahh3=298.56635721
 
                                                                                 ! Use the cc-pVTZ-F12 basis set
 basis=cc-pVTZ-F12
 
 hf
 
                                                                                 ! Use explicitly correlated F12 methods
                                                                            ! First, MP2-F12 (useful for initial electronic energy)
 {mp2-f12}
 
                                                                        ! If desired, perform CCSD(T)-F12 for more accurate results
 {ccsd(t)-f12}
 
                                                                                 ! Output the energy
 xxx = "mmm"
 point = 10
 text ### CH3OH
 table,xxx,rco,roh,rch1,rch2,rch3,acoh,aoch1,aoch2,aoch3,ahh1,ahh2,ahh3,energy,point
 DIGITS, 0, 8, 8, 8, 8, 8, 8, 8, 8, 8,  8,  8,  8, 8, 4
 save,CH3OH_MEP_MP2_10.dat,new
 
 Commands  initialized (802), CPU time= 0.00 sec, 659 directives.
 Default parameters read. Elapsed time= 0.09 sec

 Checking input...
 Passed
1


                                         ***  PROGRAM SYSTEM MOLPRO  ***
                                       Copyright, TTI GmbH Stuttgart, 2015
                                    Version 2020.1 linked Oct  6 2020 12:04:11


 **********************************************************************************************************************************
 LABEL *   Methanol Ground State Energy with CCSD(T)-F12 and cc-pVTZ-F12                 
  64 bit serial version                                                                  DATE: 08-Oct-24          TIME: 17:11:36  
 **********************************************************************************************************************************

 SHA1:             8c27446f6450a7499e38f603e13c65f775101d37
 **********************************************************************************************************************************

 Memory per process:       500 MW
 Total memory per node:    500 MW

 GA preallocation disabled
 GA check disabled

 Variable memory set to 500.0 MW

 SETTING RCO            =         1.44577677                                  
 SETTING ROH            =         0.96013932                                  
 SETTING RCH1           =         1.09171752                                  
 SETTING RCH2           =         1.08440070                                  
 SETTING RCH3           =         1.09171752                                  
 SETTING ACOH           =       108.12930637                                  
 SETTING AOCH1          =       111.65221523                                  
 SETTING AOCH2          =       107.18733878                                  
 SETTING AOCH3          =       111.65221523                                  
 SETTING AHH1           =        61.43364279                                  
 SETTING AHH2           =       180.00000000                                  
 SETTING AHH3           =       298.56635721                                  
 SETTING BASIS          =    CC-PVTZ-F12


 Recomputing integrals since basis changed


 Using spherical harmonics

 Library entry C      S cc-pVTZ-F12          selected for orbital group  1
 Library entry C      P cc-pVTZ-F12          selected for orbital group  1
 Library entry C      D cc-pVTZ-F12          selected for orbital group  1
 Library entry C      F cc-pVTZ-F12          selected for orbital group  1
 Library entry O      S cc-pVTZ-F12          selected for orbital group  2
 Library entry O      P cc-pVTZ-F12          selected for orbital group  2
 Library entry O      D cc-pVTZ-F12          selected for orbital group  2
 Library entry O      F cc-pVTZ-F12          selected for orbital group  2
 Library entry H      S cc-pVTZ-F12          selected for orbital group  3
 Library entry H      P cc-pVTZ-F12          selected for orbital group  3
 Library entry H      D cc-pVTZ-F12          selected for orbital group  3


 PROGRAM * SEWARD (Integral evaluation for generally contracted gaussian basis sets)     Author: Roland Lindh, 1990

 Geometry written to block  1 of record 700

 Orientation using atomic masses  
 Molecule type: Asymmetric top
 Symmetry elements: X
 Rotational constants:      23.2861751     24.0885745    128.7642353 GHz  (calculated with average atomic masses)

 Point group  Cs  



 ATOMIC COORDINATES

 NR  ATOM    CHARGE       X              Y              Z

   1  C       6.00    0.000000000    0.024772012   -1.401662688
   2  O       8.00    0.000000000   -0.121573713    1.326537136
   3  H       1.00    0.000000000    1.570037031    1.982663451
   4  H1      1.00    1.684053272    0.981122865   -2.112662687
   5  H3      1.00   -1.684053272    0.981122865   -2.112662687
   6  H2      1.00    0.000000000   -1.897691580   -2.111196147

 Bond lengths in Bohr (Angstrom)

 1-2  2.732122133  1-4  2.063047110  1-5  2.063047110  1-6  2.049220337  2-3  1.814400356
     ( 1.445776770)     ( 1.091717516)     ( 1.091717516)     ( 1.084400703)     ( 0.960139320)

 Bond angles

  1-2-3  108.12930637   2-1-4  111.65221523   2-1-5  111.65221523   2-1-6  107.18733878

  4-1-5  109.43105099   4-1-6  108.39459424   5-1-6  108.39459424

 NUCLEAR CHARGE:                   18
 NUMBER OF PRIMITIVE AOS:         228
 NUMBER OF SYMMETRY AOS:          206
 NUMBER OF CONTRACTIONS:          178   (  114A'  +   64A"  )
 NUMBER OF INNER CORE ORBITALS:     0   (    0A'  +    0A"  )
 NUMBER OF OUTER CORE ORBITALS:     2   (    2A'  +    0A"  )
 NUMBER OF VALENCE ORBITALS:       12   (    9A'  +    3A"  )


 NUCLEAR REPULSION ENERGY   39.94846695

 Eigenvalues of metric

         1 0.892E-04 0.187E-03 0.310E-03 0.466E-03 0.499E-03 0.561E-03 0.621E-03 0.624E-03
         2 0.324E-03 0.570E-03 0.688E-03 0.179E-02 0.340E-02 0.516E-02 0.645E-02 0.877E-02


 Contracted 2-electron integrals neglected if value below      1.0D-11
 AO integral compression algorithm  1   Integral accuracy      1.0D-11

     330.826 MB (compressed) written to integral file ( 53.4%)


 NUMBER OF SORTED TWO-ELECTRON INTEGRALS:   64554730.     BUFFER LENGTH:  32768
 NUMBER OF SEGMENTS:   5  SEGMENT LENGTH:   15997996      RECORD LENGTH: 524288

 Memory used in sort:      16.56 MW

 SORT1 READ    77497885. AND WROTE    63546135. INTEGRALS IN    184 RECORDS. CPU TIME:     2.24 SEC, REAL TIME:   180.55 SEC
 SORT2 READ    63546135. AND WROTE    64554730. INTEGRALS IN   1262 RECORDS. CPU TIME:     1.40 SEC, REAL TIME:   448.41 SEC

 FILE SIZES:   FILE 1:   361.7 MBYTE,  FILE 4:   771.8 MBYTE,   TOTAL:   1133.5 MBYTE

 OPERATOR DM      FOR CENTER  0  COORDINATES:    0.000000    0.000000    0.000000


 **********************************************************************************************************************************
 DATASETS  * FILE   NREC   LENGTH (MB)   RECORD NAMES
              1      19      311.32       500      610      700      900      950      970     1000      129      960     1100   
                                          VAR    BASINP    GEOM    SYMINP    ZMAT    AOBASIS   BASIS     P2S    ABASIS      S 
                                         1400     1410     1200     1210     1080     1600     1650     1300     1700   
                                           T        V       H0       H01     AOSYM     SMH    MOLCAS    ERIS     OPER   

 PROGRAMS   *        TOTAL       INT
 CPU TIMES  *         7.33      7.22
 REAL TIME  *       766.18 SEC
 DISK USED  *         1.13 GB
 **********************************************************************************************************************************


 PROGRAM * RHF-SCF (CLOSED SHELL)       Authors: W. Meyer, H.-J. Werner


 NUMBER OF ELECTRONS:       9+    9-
 CONVERGENCE THRESHOLDS:    1.00E-05 (Density)    1.00E-07 (Energy)
 MAX. NUMBER OF ITERATIONS:       60
 INTERPOLATION TYPE:            DIIS
 INTERPOLATION STEPS:              2 (START)      1 (STEP)
 LEVEL SHIFTS:                  0.00 (CLOSED)  0.00 (OPEN) 



 Orbital guess generated from atomic densities. Full valence occupancy:   11   3

 Molecular orbital dump at record        2100.2

 Initial occupancy:   7   2

 ITERATION    DDIFF          GRAD             ENERGY        2-EL.EN.            DIPOLE MOMENTS         DIIS   ORB.
    1      0.000D+00      0.000D+00      -115.06113214    163.715429    0.00000    0.90426   -0.52782    0    start
    2      0.000D+00      0.670D-02      -115.08935054    161.164566    0.00000    0.49566   -0.33794    1    diag
    3      0.654D-02      0.372D-02      -115.09711794    162.425147    0.00000    0.59970   -0.43592    2    diag
    4      0.226D-02      0.724D-03      -115.09765220    162.250566    0.00000    0.59492   -0.43031    3    diag
    5      0.591D-03      0.145D-03      -115.09768682    162.262012    0.00000    0.59101   -0.43496    4    diag
    6      0.165D-03      0.270D-04      -115.09768838    162.259515    0.00000    0.59115   -0.43570    5    diag
    7      0.469D-04      0.561D-05      -115.09768845    162.259251    0.00000    0.59098   -0.43597    6    diag
    8      0.115D-04      0.140D-05      -115.09768845    162.259541    0.00000    0.59096   -0.43599    7    diag
    9      0.221D-05      0.435D-06      -115.09768845    162.259388    0.00000    0.59095   -0.43600    0    orth

 Final occupancy:   7   2

 !RHF STATE  1.1 Energy              -115.097688453843
 Nuclear energy                        39.94846695
 One-electron energy                 -236.17584962
 Two-electron energy                   81.12969422
 Virial quotient                       -1.00144317
 !RHF STATE  1.1 Dipole moment          0.00000000     0.59094937    -0.43599646
 Dipole moment /Debye                   0.00000000     1.50194510    -1.10811988

 Orbital energies:

         1.1          2.1          3.1          4.1          5.1          6.1          7.1          8.1          9.1
    -20.556452   -11.272535    -1.348255    -0.927577    -0.685473    -0.589133    -0.506541     0.054693     0.064671

         1.2          2.2          3.2          4.2
     -0.617847    -0.454418     0.073799     0.181957


 HOMO      2.2    -0.454418 =     -12.3653eV
 LUMO      8.1     0.054693 =       1.4883eV
 LUMO-HOMO         0.509111 =      13.8536eV


 **********************************************************************************************************************************
 DATASETS  * FILE   NREC   LENGTH (MB)   RECORD NAMES
              1      19      311.32       500      610      700      900      950      970     1000      129      960     1100   
                                          VAR    BASINP    GEOM    SYMINP    ZMAT    AOBASIS   BASIS     P2S    ABASIS      S 
                                         1400     1410     1200     1210     1080     1600     1650     1300     1700   
                                           T        V       H0       H01     AOSYM     SMH    MOLCAS    ERIS     OPER   

              2       4        3.18       700     1000      520     2100   
                                         GEOM     BASIS   MCVARS     RHF  

 PROGRAMS   *        TOTAL    HF-SCF       INT
 CPU TIMES  *        10.56      3.23      7.22
 REAL TIME  *       804.77 SEC
 DISK USED  *         1.13 GB
 **********************************************************************************************************************************


 PROGRAM * MP2 (Closed-shell)     Authors: C. Hampel, H.-J. Werner, 1991, M. Deegan, P.J. Knowles, 1992

                                   MP2-F12 implementation by H.-J. Werner, 2007

                   Density fitting integral evaluation by F.R. Manby, 2003,2007, G. Knizia, 2010


 Basis set AUG-CC-PVTZ/JKFIT generated.  Number of basis functions:   392 
 Basis set CC-PVTZ-F12/OPTRI generated.  Number of basis functions:   314 
 Basis set AUG-CC-PVTZ/MP2FIT generated. Number of basis functions:   396 

 Convergence thresholds:  THRVAR = 1.00D-08  THRDEN = 1.00D-06

 Number of core orbitals:           2 (   2   0 )
 Number of closed-shell orbitals:   7 (   5   2 )
 Number of external orbitals:     169 ( 107  62 )

 Molecular orbitals read from record     2100.2  Type=RHF/CANONICAL (state 1.1)

 MP2-F12 correlation treatment (H.-J. Werner, 2006)
 ==================================================

 Using MP2-F12 with ansatz 3C(FIX)

 Using projected zeroth-order Hamiltonian (+Z)

 FOCKRIB=T FOCKRIC=T FOCKRIP=T CABSP=T CABSA=T CABSK=T CABSF=T GBC=F EBC=F DMAT=T NOFIK=T NOPAO=1 SOLVE=-1  USEPAO=0
 EXCH_A= T EXCH_B= F EXCH_C= F EXCH_P= F

 Geminal basis:    OPTFULL  GEM_TYPE=SLATER  BETA=1.0  NGEM=6

 Optimizing Gaussian exponents for each gem_beta

 Geminal optimization for beta= 1.0000
 Weight function:   m=0, omega= 1.4646

 Augmented Hessian optimization of geminal fit. Trust ratio= 0.40000
 Convergence reached after   2 iterations. Final gradient= 8.66D-16, Step= 4.23D-06, Delta= 1.28D-09

 Alpha:                 0.19532     0.81920     2.85917     9.50073    35.69989   197.79328
 Coeff:                 0.27070     0.30552     0.18297     0.10986     0.06810     0.04224


 Symmetry turned off. Reference energy:       -115.097688453843

 All pairs explicitly correlated. Number of r12-pairs:           28

 Excluding core orbitals from MO domains

 AO(A)-basis ORBITAL           loaded. Number of functions:     178
 RI(R)-basis CC-PVTZ-F12/OPTRI loaded. Number of functions:     314
 DF-basis AUG-CC-PVTZ/JKFIT    loaded. Number of functions:     392

 Screening thresholds:   THRAO=  1.00D-10  THRMO=  1.00D-09  THRPROD=  1.00D-09
                         THRSW=  1.00D-05  THROV=  1.00D-12  THRAOF12= 1.00D-08

 CPU time for Fock operators                      5.51 sec

 Construction of ABS:
 Smallest eigenvalue of S          4.48E-04  (threshold= 1.00E-08)
 Ratio eigmin/eigmax               5.76E-05  (threshold= 1.00E-09)
 Smallest eigenvalue of S kept     4.48E-04  (threshold= 4.48E-04, 0 functions deleted, 314 kept)

 Construction of CABS:
 Smallest eigenvalue of S          7.65E-07  (threshold= 1.00E-08)
 Ratio eigmin/eigmax               7.65E-07  (threshold= 1.00E-09)
 Smallest eigenvalue of S kept     7.65E-07  (threshold= 7.65E-07, 0 functions deleted, 314 kept)

 CPU time for CABS singles                        0.04 sec

 CABS-singles contribution of  -0.00133973 patched into reference energy.
 New reference energy        -115.09902818

 AO(A)-basis ORBITAL           loaded. Number of functions:     178
 RI(R)-basis CC-PVTZ-F12/OPTRI loaded. Number of functions:     314
 DF-basis AUG-CC-PVTZ/MP2FIT   loaded. Number of functions:     396

 Screening thresholds:   THRAO=  1.00D-10  THRMO=  1.00D-09  THRPROD=  1.00D-09
                         THRSW=  1.00D-05  THROV=  1.00D-12  THRAOF12= 1.00D-08

 CPU time for 3-index integral evaluation         3.40 sec
 CPU time for first  half transformation          0.27 sec ( 9144.6 MFLOP/sec)
 CPU time for second half transformation          0.01 sec ( 6217.0 MFLOP/sec)
 CPU time for sorting                             0.01 sec
 CPU time for fitting                             0.02 sec (56971.3 MFLOP/sec)
 CPU time for tilde quantities                    0.04 sec (37761.3 MFLOP/sec)
 CPU time for assembly                            0.21 sec (58826.6 MFLOP/sec)
 CPU time for tranop_f12                          0.26 sec (61000.9 MFLOP/sec)
 CPU time for f12 integrals (total)               7.19 sec, Elapsed time:      7.81 sec
 CPU time for f12 matrices (total)                0.14 sec, Elapsed time:      2.21 sec

 Diagonal F12 approximation with fixed coefficients:  TSING= 0.500,  TTRIP= 0.250 (scaled by -1/beta)

 DF-MP2-F12 energy corrections:
 ==============================
 Approx.                                    Singlet             Triplet             Total
 DF-MP2-F12/3*C(DX,FIX)                -0.038219324896     -0.004188466860     -0.042407791756
 DF-MP2-F12/3*C(FIX)                   -0.036044911373     -0.003912538473     -0.039957449846
 DF-MP2-F12/3C(FIX)                    -0.035990027010     -0.004047364170     -0.040037391180

 DF-MP2-F12 correlation energies:
 ================================
 Approx.                                    Singlet             Triplet             Ecorr            Total Energy
 DF-MP2                                -0.291695504209     -0.152472875859     -0.444168380068   -115.543196560325
 DF-MP2-F12/3*C(DX,FIX)                -0.329914829105     -0.156661342719     -0.486576171824   -115.585604352081
 DF-MP2-F12/3*C(FIX)                   -0.327740415582     -0.156385414332     -0.484125829914   -115.583154010171
 DF-MP2-F12/3C(FIX)                    -0.327685531219     -0.156520240029     -0.484205771248   -115.583233951506

 SCS-DF-MP2 energies (F_SING= 1.20000  F_TRIP= 0.62222  F_PARALLEL= 0.33333):
 ============================================================================
 SCS-DF-MP2                            -0.444906616696   -115.543934796954
 SCS-DF-MP2-F12/3*C(DX,FIX)            -0.493375963729   -115.592404143986
 SCS-DF-MP2-F12/3*C(FIX)               -0.490594978727   -115.589623158984
 SCS-DF-MP2-F12/3C(FIX)                -0.490613009037   -115.589641189294

 Symmetry restored.
 Symmetry transformation completed.

 Number of N-1 electron functions:               7
 Number of N-2 electron functions:              28
 Number of singly external CSFs:               659
 Number of doubly external CSFs:            355020
 Total number of CSFs:                      355680

 Length of J-op  integral file:             103.49 MB
 Length of K-op  integral file:             127.95 MB

 Integral transformation finished. Total CPU:   0.48 sec, npass=  1  Memory used:   0.67 MW

 ITER.      SQ.NORM     CORR.ENERGY   TOTAL ENERGY   ENERGY CHANGE     VAR   MIC
   1      1.00000000    -0.44423550  -115.54326368    -0.44423550  0.00D+00   0
   2      1.11572745    -0.44423550  -115.54326368     0.00000000 -0.35D-15   0

 Solving MP2-F12 equations

   1      1.11569055    -0.48351217  -115.58254035    -0.03927667 -0.38D-04   0
   2      1.11569055    -0.48427148  -115.58329966    -0.00075931  0.19D-17   0
   3      1.11569055    -0.48427148  -115.58329966     0.00000000  0.24D-18   0

 CPU TIME FOR ITERATIVE MP2:    0.03 SEC


 MP2-F12 energy corrections:
 ===========================
 Approx.                                    Singlet             Triplet             Total
 MP2-F12/3*C(DX,FIX)                   -0.038219324896     -0.004188466860     -0.042407791756
 MP2-F12/3*C(FIX)                      -0.036044911373     -0.003912538473     -0.039957449846
 MP2-F12/3C(FIX)                       -0.035987377057     -0.004048611084     -0.040035988141

 MP2-F12 correlation energies:
 =============================
 Approx.                                    Singlet             Triplet             Ecorr            Total Energy
 MP2                                   -0.291877510881     -0.152357984461     -0.444235495342   -115.543263675600
 MP2-F12/3*C(DX,FIX)                   -0.330096835777     -0.156546451322     -0.486643287098   -115.585671467356
 MP2-F12/3*C(FIX)                      -0.327922422254     -0.156270522934     -0.484192945188   -115.583221125445
 MP2-F12/3C(FIX)                       -0.327864887938     -0.156406595546     -0.484271483483   -115.583299663740

 SCS-MP2 energies (F_SING= 1.20000  F_TRIP= 0.62222  F_PARALLEL= 0.33333):
 =========================================================================
 SCS-MP2                               -0.445053536722   -115.544081716979
 SCS-MP2-F12/3*C(DX,FIX)               -0.493522883754   -115.592551064012
 SCS-MP2-F12/3*C(FIX)                  -0.490741898753   -115.589770079010
 SCS-MP2-F12/3C(FIX)                   -0.490757524976   -115.589785705233


  Reference energy                   -115.097688453843
  F12 singles correction               -0.001339726414

 F12 singles corrections added to reference energy

  New reference energy               -115.099028180257

  F12/3C(F) singlet correction         -0.035987377057
  F12/3C(F) triplet correction         -0.004048611084
  F12/3C(F) total correction           -0.040035988141
  MP2-F12/3C(F) singlet pair energy    -0.327864887938
  MP2-F12/3C(F) triplet pair energy    -0.156406595546
  MP2-F12/3C(F) correlation energy     -0.484271483483

 !MP2-F12/3C(F) total energy         -115.583299663740


 **********************************************************************************************************************************
 DATASETS  * FILE   NREC   LENGTH (MB)   RECORD NAMES
              1      20      317.06       500      610      700      900      950      970     1000      129      960     1100   
                                          VAR    BASINP    GEOM    SYMINP    ZMAT    AOBASIS   BASIS     P2S    ABASIS      S 
                                         1400     1410     1200     1210     1080     1600     1650     1300     1700     1380   
                                           T        V       H0       H01     AOSYM     SMH    MOLCAS    ERIS     OPER     JKOP   

              2       7        3.55       700     1000      520     2100     7360     7350     7000   
                                         GEOM     BASIS   MCVARS     RHF    F12ABS    EF12   

 PROGRAMS   *        TOTAL   MP2-F12    HF-SCF       INT
 CPU TIMES  *        24.16     13.58      3.23      7.22
 REAL TIME  *       823.39 SEC
 DISK USED  *         1.13 GB
 **********************************************************************************************************************************


 PROGRAM * CCSD (Closed-shell coupled cluster)     Authors: C. Hampel, H.-J. Werner, 1991, M. Deegan, P.J. Knowles, 1992

                                  CCSD-F12 implementation by  H.-J. Werner, 2007

                   Density fitting integral evaluation by F.R. Manby, 2003,2007, G. Knizia, 2010



 Convergence thresholds:  THRVAR = 1.00D-08  THRDEN = 1.00D-06

 CCSD(T)     terms to be evaluated (factor= 1.000)


 Number of core orbitals:           2 (   2   0 )
 Number of closed-shell orbitals:   7 (   5   2 )
 Number of external orbitals:     169 ( 107  62 )

 Molecular orbitals read from record     2100.2  Type=RHF/CANONICAL (state 1.1)

 MP2-F12 correlation treatment (H.-J. Werner, 2006)
 ==================================================

 Using MP2-F12 with ansatz 3C(FIX)

 Using projected zeroth-order Hamiltonian (+Z)

 FOCKRIB=T FOCKRIC=T FOCKRIP=T CABSP=T CABSA=T CABSK=T CABSF=T GBC=F EBC=F DMAT=T NOFIK=T NOPAO=1 SOLVE=-1  USEPAO=0
 EXCH_A= T EXCH_B= F EXCH_C= F EXCH_P= F

 Geminal basis:    OPTFULL  GEM_TYPE=SLATER  BETA=1.0  NGEM=6

 Optimizing Gaussian exponents for each gem_beta

 Geminal optimization for beta= 1.0000
 Weight function:   m=0, omega= 1.4646

 Augmented Hessian optimization of geminal fit. Trust ratio= 0.40000
 Convergence reached after   2 iterations. Final gradient= 8.66D-16, Step= 4.23D-06, Delta= 1.28D-09

 Alpha:                 0.19532     0.81920     2.85917     9.50073    35.69989   197.79328
 Coeff:                 0.27070     0.30552     0.18297     0.10986     0.06810     0.04224


 Symmetry turned off. Reference energy:       -115.097688453843

 All pairs explicitly correlated. Number of r12-pairs:           28

 Excluding core orbitals from MO domains

 AO(A)-basis ORBITAL           loaded. Number of functions:     178
 RI(R)-basis CC-PVTZ-F12/OPTRI loaded. Number of functions:     314
 DF-basis AUG-CC-PVTZ/JKFIT    loaded. Number of functions:     392

 Screening thresholds:   THRAO=  1.00D-10  THRMO=  1.00D-09  THRPROD=  1.00D-09
                         THRSW=  1.00D-05  THROV=  1.00D-12  THRAOF12= 1.00D-08

 CPU time for Fock operators                      5.51 sec

 Construction of ABS:
 Smallest eigenvalue of S          4.48E-04  (threshold= 1.00E-08)
 Ratio eigmin/eigmax               5.76E-05  (threshold= 1.00E-09)
 Smallest eigenvalue of S kept     4.48E-04  (threshold= 4.48E-04, 0 functions deleted, 314 kept)

 Construction of CABS:
 Smallest eigenvalue of S          7.65E-07  (threshold= 1.00E-08)
 Ratio eigmin/eigmax               7.65E-07  (threshold= 1.00E-09)
 Smallest eigenvalue of S kept     7.65E-07  (threshold= 7.65E-07, 0 functions deleted, 314 kept)

 CPU time for CABS singles                        0.04 sec

 CABS-singles contribution of  -0.00133973 patched into reference energy.
 New reference energy        -115.09902818

 AO(A)-basis ORBITAL           loaded. Number of functions:     178
 RI(R)-basis CC-PVTZ-F12/OPTRI loaded. Number of functions:     314
 DF-basis AUG-CC-PVTZ/MP2FIT   loaded. Number of functions:     396

 Screening thresholds:   THRAO=  1.00D-10  THRMO=  1.00D-09  THRPROD=  1.00D-09
                         THRSW=  1.00D-05  THROV=  1.00D-12  THRAOF12= 1.00D-08

 CPU time for 3-index integral evaluation         3.48 sec
 CPU time for first  half transformation          0.22 sec (11223.0 MFLOP/sec)
 CPU time for sorting                             0.01 sec
 CPU time for fitting                             0.04 sec (28485.6 MFLOP/sec)
 CPU time for tilde quantities                    0.02 sec (75522.6 MFLOP/sec)
 CPU time for assembly                            0.21 sec (58826.6 MFLOP/sec)
 CPU time for tranop_f12                          0.27 sec (58741.6 MFLOP/sec)
 CPU time for f12 integrals (total)               7.20 sec, Elapsed time:      7.75 sec
 CPU time for f12 matrices (total)                0.10 sec, Elapsed time:      0.14 sec

 Diagonal F12 approximation with fixed coefficients:  TSING= 0.500,  TTRIP= 0.250 (scaled by -1/beta)

 DF-MP2-F12 energy corrections:
 ==============================
 Approx.                                    Singlet             Triplet             Total
 DF-MP2-F12/3*C(DX,FIX)                -0.038219324896     -0.004188466860     -0.042407791756
 DF-MP2-F12/3*C(FIX)                   -0.036044911373     -0.003912538473     -0.039957449846
 DF-MP2-F12/3C(FIX)                    -0.035990027010     -0.004047364170     -0.040037391180

 DF-MP2-F12 correlation energies:
 ================================
 Approx.                                    Singlet             Triplet             Ecorr            Total Energy
 DF-MP2                                -0.291695504209     -0.152472875859     -0.444168380068   -115.543196560325
 DF-MP2-F12/3*C(DX,FIX)                -0.329914829105     -0.156661342719     -0.486576171824   -115.585604352081
 DF-MP2-F12/3*C(FIX)                   -0.327740415582     -0.156385414332     -0.484125829914   -115.583154010171
 DF-MP2-F12/3C(FIX)                    -0.327685531219     -0.156520240029     -0.484205771248   -115.583233951506

 SCS-DF-MP2 energies (F_SING= 1.20000  F_TRIP= 0.62222  F_PARALLEL= 0.33333):
 ============================================================================
 SCS-DF-MP2                            -0.444906616696   -115.543934796954
 SCS-DF-MP2-F12/3*C(DX,FIX)            -0.493375963729   -115.592404143986
 SCS-DF-MP2-F12/3*C(FIX)               -0.490594978727   -115.589623158984
 SCS-DF-MP2-F12/3C(FIX)                -0.490613009037   -115.589641189294

 Symmetry restored.
 Symmetry transformation completed.

 Number of N-1 electron functions:               7
 Number of N-2 electron functions:              28
 Number of singly external CSFs:               659
 Number of doubly external CSFs:            355020
 Total number of CSFs:                      355680

 Length of J-op  integral file:             103.62 MB
 Length of K-op  integral file:             127.95 MB
 Length of 3-ext integral record:             0.00 MB

 Memory could be reduced to 24.20 Mwords without degradation in triples

 Integral transformation finished. Total CPU:   1.23 sec, npass=  1  Memory used:   7.45 MW

 Reference energy:                   -115.09902818

 Adding F12 terms to K(Cij), methodcc=6,  factor= 1.0

 ITER.      SQ.NORM     CORR.ENERGY   TOTAL ENERGY   ENERGY CHANGE        DEN1      VAR(S)    VAR(P)  DIIS     TIME  TIME/IT
   1      1.11847559    -0.45347323  -115.55250141    -0.00923773     0.00193959  0.15D-02  0.19D-02  1  1    14.99     0.90
   2      1.12602328    -0.45382309  -115.55285127    -0.00034986    -0.00916912  0.24D-04  0.24D-03  2  2    15.84     0.93
   3      1.12881881    -0.45400499  -115.55303317    -0.00018190    -0.00188911  0.16D-04  0.14D-04  3  3    16.71     0.94
   4      1.12980359    -0.45402258  -115.55305076    -0.00001759    -0.00061882  0.89D-06  0.13D-05  4  4    17.59     0.95
   5      1.12996788    -0.45402443  -115.55305261    -0.00000185    -0.00004032  0.25D-06  0.11D-06  5  5    18.47     0.95
   6      1.13001346    -0.45402191  -115.55305009     0.00000252    -0.00000469  0.38D-07  0.10D-07  6  6    19.34     0.95
   7      1.13002526    -0.45402101  -115.55304919     0.00000090    -0.00000310  0.42D-08  0.15D-08  6  1    20.21     0.96
   8      1.13002716    -0.45402108  -115.55304926    -0.00000007     0.00000036  0.74D-09  0.22D-09  6  3    21.07     0.96

 Norm of t1 vector:      0.05072795      S-energy:    -0.00000038      T1 diagnostic:  0.00958668
                                                                       D1 diagnostic:  0.02031759

 Adding energy correction from Wij-K(Fij), methodcc=6  factor= 1.0

  CCSD correlation energy              -0.454021080097
  MP2-F12 correction (uncoupled)       -0.038475659156
  C*T doubles correction               -0.001170702936
  f12b correction                       0.007107771472


 Total CPU time for triples:     12.28 sec


 RESULTS
 =======

  Reference energy                   -115.097688453843
  F12 singles correction               -0.001339726414

 F12 singles corrections added to reference energy

  New reference energy               -115.099028180257

  F12a singlet correction              -0.035746419773
  F12a triplet correction              -0.003899942318
  F12a total correction                -0.039646362092

 F12a corrections for ansatz F12/3C(FIX) added to CCSD energy

  CCSD-F12a singlet pair energy        -0.351901349701
  CCSD-F12a triplet pair energy        -0.141765713380
  CCSD-F12a correlation energy         -0.493667442189

  Triples (T) contribution             -0.016188972452
  Total correlation energy             -0.509856414641

  CCSD-F12a total energy             -115.592695622446
  CCSD[T]-F12a energy                -115.609455414274
  CCSD-T-F12a energy                 -115.608631163880
 !CCSD(T)-F12a total energy          -115.608884594898

 F12b corrections for ansatz F12/3C(FIX) added to CCSD(T)-F12a energy

  CCSD-F12b singlet pair energy        -0.345254457334
  CCSD-F12b triplet pair energy        -0.141304834274
  CCSD-F12b correlation energy         -0.486559670717

  Triples (T) contribution             -0.016188972452
  Total correlation energy             -0.502748643168

  CCSD-F12b total energy             -115.585587850974
  CCSD[T]-F12b energy                -115.602347642801
  CCSD-T-F12b energy                 -115.601523392408
 !CCSD(T)-F12b total energy          -115.601776823426

 Timing summary (sec):

 STEP                 CPU(USER)    SYS     CPU(TOT)    WALL
 Transformation          1.24      0.17      1.41      1.41
 CCSD iterations         6.90      0.76      7.66      7.71
 Triples                12.28      0.47     12.75     12.78
 MP2-F12                12.93      0.71     13.64     13.80
 F12b energy             0.70      0.05      0.75      0.76

 Program statistics:

 Available memory in ccsd:               499999650
 Min. memory needed in ccsd:               1149135
 Max. memory used in ccsd:                 1443104
 Max. memory used in cckext:               1888566 ( 9 integral passes)



 **********************************************************************************************************************************
 DATASETS  * FILE   NREC   LENGTH (MB)   RECORD NAMES
              1      20      385.63       500      610      700      900      950      970     1000      129      960     1100   
                                          VAR    BASINP    GEOM    SYMINP    ZMAT    AOBASIS   BASIS     P2S    ABASIS      S 
                                         1400     1410     1200     1210     1080     1600     1650     1300     1700     1380   
                                           T        V       H0       H01     AOSYM     SMH    MOLCAS    ERIS     OPER     JKOP   

              2       7        3.55       700     1000      520     2100     7360     7350     7000   
                                         GEOM     BASIS   MCVARS     RHF    F12ABS    EF12   

 PROGRAMS   *        TOTAL   CCSD(T)   MP2-F12    HF-SCF       INT
 CPU TIMES  *        58.24     34.08     13.58      3.23      7.22
 REAL TIME  *       859.93 SEC
 DISK USED  *         1.13 GB
 **********************************************************************************************************************************
 SETTING XXX            =    "MMM"
 SETTING POINT          =        10.00000000                                  

 *** ### CH3OH


 XXX       RCO          ROH          RCH1         RCH2         RCH3           ACOH           AOCH1          AOCH2          AOCH3         AHH1           AHH2           AHH3            ENERGY       POINT
 "MMM"   1.44577677   0.96013932   1.09171752   1.08440070   1.09171752   108.12930637   111.65221523   107.18733878   111.65221523   61.43364279   180.00000000   298.56635721   -115.60888459   10.0000
                                                  

 CCSD(T)-F12/cc-pVTZ-F12 energy=   -115.601776823426

     CCSD(T)-F12         MP2-F12          HF-SCF
   -115.60177682   -115.58329966   -115.09768845
 **********************************************************************************************************************************
 Molpro calculation terminated
