
 Primary working directories    : /tmpdir/job/2955613.undefined/molpro.RWe6mdMpZb
 Secondary working directories  : /tmpdir/job/2955613.undefined/molpro.RWe6mdMpZb
 Wavefunction directory         : /home/zcaposm/wfu/
 Main file repository           : /tmpdir/job/2955613.undefined/molpro.RWe6mdMpZb/

 id        : uclcc

 Nodes                         nprocs
 node-d00a-043.myriad.ucl.ac.uk    1

 Using customized tuning parameters: mindgm=1; mindgv=20; mindgc=4; mindgr=1; noblas=0; minvec=7
 default implementation of scratch files=df  


 Variables initialized (945), CPU time= 0.00 sec
 ***,Methanol Ground State Energy with CCSD(T)-F12 and cc-pVTZ-F12
 memory,500,m;
 
 geometry={angstrom
 c
 o , 1, rco
 h , 2, roh, 1, acoh
 h1, 1, rch1, 2, aoch1  3  ahh1
 h2, 1, rch2, 2, aoch2, 3, ahh2
 h3, 1, rch3, 2, aoch3, 3, ahh3
 }
 
                                                ! Specify the initial values of the internal coordinates (in Angstroms and degrees)
 
 rco= 1.42077677
 roh= 0.96013932
 rch1= 1.091717515605
 rch2= 1.05940070258
 rch3= 1.091717515605
 acoh= 108.12930637
 aoch1= 111.6522152299
 aoch2= 107.18733878260001
 aoch3= 111.6522152299
 ahh1=61.43364279
 ahh2=180.0
 ahh3=298.56635721
 
                                                                                 ! Use the cc-pVTZ-F12 basis set
 basis=cc-pVTZ-F12
 
 hf
 
                                                                                 ! Use explicitly correlated F12 methods
                                                                            ! First, MP2-F12 (useful for initial electronic energy)
 {mp2-f12}
 
                                                                        ! If desired, perform CCSD(T)-F12 for more accurate results
 {ccsd(t)-f12}
 
                                                                                 ! Output the energy
 xxx = "mmm"
 point = 47
 text ### CH3OH
 table,xxx,rco,roh,rch1,rch2,rch3,acoh,aoch1,aoch2,aoch3,ahh1,ahh2,ahh3,energy,point
 DIGITS, 0, 8, 8, 8, 8, 8, 8, 8, 8, 8,  8,  8,  8, 8, 4
 save,CH3OH_MEP_MP2_47.dat,new
 
 Commands  initialized (802), CPU time= 0.01 sec, 659 directives.
 Default parameters read. Elapsed time= 0.11 sec

 Checking input...
 Passed
1


                                         ***  PROGRAM SYSTEM MOLPRO  ***
                                       Copyright, TTI GmbH Stuttgart, 2015
                                    Version 2020.1 linked Oct  6 2020 12:04:11


 **********************************************************************************************************************************
 LABEL *   Methanol Ground State Energy with CCSD(T)-F12 and cc-pVTZ-F12                 
  64 bit serial version                                                                  DATE: 08-Oct-24          TIME: 17:15:52  
 **********************************************************************************************************************************

 SHA1:             8c27446f6450a7499e38f603e13c65f775101d37
 **********************************************************************************************************************************

 Memory per process:       500 MW
 Total memory per node:    500 MW

 GA preallocation disabled
 GA check disabled

 Variable memory set to 500.0 MW

 SETTING RCO            =         1.42077677                                  
 SETTING ROH            =         0.96013932                                  
 SETTING RCH1           =         1.09171752                                  
 SETTING RCH2           =         1.05940070                                  
 SETTING RCH3           =         1.09171752                                  
 SETTING ACOH           =       108.12930637                                  
 SETTING AOCH1          =       111.65221523                                  
 SETTING AOCH2          =       107.18733878                                  
 SETTING AOCH3          =       111.65221523                                  
 SETTING AHH1           =        61.43364279                                  
 SETTING AHH2           =       180.00000000                                  
 SETTING AHH3           =       298.56635721                                  
 SETTING BASIS          =    CC-PVTZ-F12


 Recomputing integrals since basis changed


 Using spherical harmonics

 Library entry C      S cc-pVTZ-F12          selected for orbital group  1
 Library entry C      P cc-pVTZ-F12          selected for orbital group  1
 Library entry C      D cc-pVTZ-F12          selected for orbital group  1
 Library entry C      F cc-pVTZ-F12          selected for orbital group  1
 Library entry O      S cc-pVTZ-F12          selected for orbital group  2
 Library entry O      P cc-pVTZ-F12          selected for orbital group  2
 Library entry O      D cc-pVTZ-F12          selected for orbital group  2
 Library entry O      F cc-pVTZ-F12          selected for orbital group  2
 Library entry H      S cc-pVTZ-F12          selected for orbital group  3
 Library entry H      P cc-pVTZ-F12          selected for orbital group  3
 Library entry H      D cc-pVTZ-F12          selected for orbital group  3


 PROGRAM * SEWARD (Integral evaluation for generally contracted gaussian basis sets)     Author: Roland Lindh, 1990

 Geometry written to block  1 of record 700

 Orientation using atomic masses  
 Molecule type: Asymmetric top
 Symmetry elements: X
 Rotational constants:      24.0339420     24.8315757    130.3412294 GHz  (calculated with average atomic masses)

 Point group  Cs  



 ATOMIC COORDINATES

 NR  ATOM    CHARGE       X              Y              Z

   1  C       6.00    0.000000000    0.020890512   -1.377155354
   2  O       8.00    0.000000000   -0.120697194    1.303987696
   3  H       1.00    0.000000000    1.571458077    1.958708394
   4  H1      1.00    1.684053272    0.976650336   -2.088949645
   5  H3      1.00   -1.684053272    0.976650336   -2.088949645
   6  H2      1.00    0.000000000   -1.857827445   -2.068770479

 Bond lengths in Bohr (Angstrom)

 1-2  2.684878979  1-4  2.063047110  1-5  2.063047110  1-6  2.001977184  2-3  1.814400356
     ( 1.420776770)     ( 1.091717516)     ( 1.091717516)     ( 1.059400703)     ( 0.960139320)

 Bond angles

  1-2-3  108.12930637   2-1-4  111.65221523   2-1-5  111.65221523   2-1-6  107.18733878

  4-1-5  109.43105099   4-1-6  108.39459424   5-1-6  108.39459424

 NUCLEAR CHARGE:                   18
 NUMBER OF PRIMITIVE AOS:         228
 NUMBER OF SYMMETRY AOS:          206
 NUMBER OF CONTRACTIONS:          178   (  114A'  +   64A"  )
 NUMBER OF INNER CORE ORBITALS:     0   (    0A'  +    0A"  )
 NUMBER OF OUTER CORE ORBITALS:     2   (    2A'  +    0A"  )
 NUMBER OF VALENCE ORBITALS:       12   (    9A'  +    3A"  )


 NUCLEAR REPULSION ENERGY   40.44226620

 Eigenvalues of metric

         1 0.860E-04 0.183E-03 0.299E-03 0.459E-03 0.493E-03 0.553E-03 0.616E-03 0.620E-03
         2 0.322E-03 0.570E-03 0.686E-03 0.177E-02 0.336E-02 0.494E-02 0.624E-02 0.868E-02


 Contracted 2-electron integrals neglected if value below      1.0D-11
 AO integral compression algorithm  1   Integral accuracy      1.0D-11

     331.874 MB (compressed) written to integral file ( 53.5%)


 NUMBER OF SORTED TWO-ELECTRON INTEGRALS:   64554730.     BUFFER LENGTH:  32768
 NUMBER OF SEGMENTS:   5  SEGMENT LENGTH:   15997996      RECORD LENGTH: 524288

 Memory used in sort:      16.56 MW

 SORT1 READ    77497885. AND WROTE    63559555. INTEGRALS IN    184 RECORDS. CPU TIME:     1.35 SEC, REAL TIME:    32.91 SEC
 SORT2 READ    63559555. AND WROTE    64554730. INTEGRALS IN   1266 RECORDS. CPU TIME:     1.32 SEC, REAL TIME:   101.13 SEC

 FILE SIZES:   FILE 1:   362.8 MBYTE,  FILE 4:   771.8 MBYTE,   TOTAL:   1134.6 MBYTE

 OPERATOR DM      FOR CENTER  0  COORDINATES:    0.000000    0.000000    0.000000


 **********************************************************************************************************************************
 DATASETS  * FILE   NREC   LENGTH (MB)   RECORD NAMES
              1      19      312.02       500      610      700      900      950      970     1000      129      960     1100   
                                          VAR    BASINP    GEOM    SYMINP    ZMAT    AOBASIS   BASIS     P2S    ABASIS      S 
                                         1400     1410     1200     1210     1080     1600     1650     1300     1700   
                                           T        V       H0       H01     AOSYM     SMH    MOLCAS    ERIS     OPER   

 PROGRAMS   *        TOTAL       INT
 CPU TIMES  *         6.36      6.24
 REAL TIME  *       185.60 SEC
 DISK USED  *         1.13 GB
 **********************************************************************************************************************************


 PROGRAM * RHF-SCF (CLOSED SHELL)       Authors: W. Meyer, H.-J. Werner


 NUMBER OF ELECTRONS:       9+    9-
 CONVERGENCE THRESHOLDS:    1.00E-05 (Density)    1.00E-07 (Energy)
 MAX. NUMBER OF ITERATIONS:       60
 INTERPOLATION TYPE:            DIIS
 INTERPOLATION STEPS:              2 (START)      1 (STEP)
 LEVEL SHIFTS:                  0.00 (CLOSED)  0.00 (OPEN) 



 Orbital guess generated from atomic densities. Full valence occupancy:   11   3

 Molecular orbital dump at record        2100.2

 Initial occupancy:   7   2

 ITERATION    DDIFF          GRAD             ENERGY        2-EL.EN.            DIPOLE MOMENTS         DIIS   ORB.
    1      0.000D+00      0.000D+00      -115.06212444    164.677444    0.00000    0.90949   -0.47940    0    start
    2      0.000D+00      0.667D-02      -115.09054164    162.074362    0.00000    0.49219   -0.30911    1    diag
    3      0.654D-02      0.364D-02      -115.09795056    163.344019    0.00000    0.59443   -0.40188    2    diag
    4      0.221D-02      0.725D-03      -115.09848515    163.166459    0.00000    0.58819   -0.39752    3    diag
    5      0.595D-03      0.146D-03      -115.09851982    163.176961    0.00000    0.58375   -0.40255    4    diag
    6      0.165D-03      0.273D-04      -115.09852140    163.175358    0.00000    0.58381   -0.40337    5    diag
    7      0.474D-04      0.596D-05      -115.09852147    163.174623    0.00000    0.58361   -0.40366    6    diag
    8      0.118D-04      0.175D-05      -115.09852148    163.175096    0.00000    0.58359   -0.40370    7    diag
    9      0.264D-05      0.525D-06      -115.09852148    163.174930    0.00000    0.58357   -0.40371    0    orth

 Final occupancy:   7   2

 !RHF STATE  1.1 Energy              -115.098521476299
 Nuclear energy                        40.44226620
 One-electron energy                 -237.12825260
 Two-electron energy                   81.58746493
 Virial quotient                       -1.00067687
 !RHF STATE  1.1 Dipole moment          0.00000000     0.58357497    -0.40370848
 Dipole moment /Debye                   0.00000000     1.48320246    -1.02605741

 Orbital energies:

         1.1          2.1          3.1          4.1          5.1          6.1          7.1          8.1          9.1
    -20.555965   -11.266642    -1.356668    -0.929494    -0.690777    -0.597625    -0.506449     0.054708     0.064881

         1.2          2.2          3.2          4.2
     -0.621198    -0.451845     0.073792     0.181527


 HOMO      2.2    -0.451845 =     -12.2953eV
 LUMO      8.1     0.054708 =       1.4887eV
 LUMO-HOMO         0.506553 =      13.7840eV


 **********************************************************************************************************************************
 DATASETS  * FILE   NREC   LENGTH (MB)   RECORD NAMES
              1      19      312.02       500      610      700      900      950      970     1000      129      960     1100   
                                          VAR    BASINP    GEOM    SYMINP    ZMAT    AOBASIS   BASIS     P2S    ABASIS      S 
                                         1400     1410     1200     1210     1080     1600     1650     1300     1700   
                                           T        V       H0       H01     AOSYM     SMH    MOLCAS    ERIS     OPER   

              2       4        3.18       700     1000      520     2100   
                                         GEOM     BASIS   MCVARS     RHF  

 PROGRAMS   *        TOTAL    HF-SCF       INT
 CPU TIMES  *         9.54      3.18      6.24
 REAL TIME  *       204.10 SEC
 DISK USED  *         1.13 GB
 **********************************************************************************************************************************


 PROGRAM * MP2 (Closed-shell)     Authors: C. Hampel, H.-J. Werner, 1991, M. Deegan, P.J. Knowles, 1992

                                   MP2-F12 implementation by H.-J. Werner, 2007

                   Density fitting integral evaluation by F.R. Manby, 2003,2007, G. Knizia, 2010


 Basis set AUG-CC-PVTZ/JKFIT generated.  Number of basis functions:   392 
 Basis set CC-PVTZ-F12/OPTRI generated.  Number of basis functions:   314 
 Basis set AUG-CC-PVTZ/MP2FIT generated. Number of basis functions:   396 

 Convergence thresholds:  THRVAR = 1.00D-08  THRDEN = 1.00D-06

 Number of core orbitals:           2 (   2   0 )
 Number of closed-shell orbitals:   7 (   5   2 )
 Number of external orbitals:     169 ( 107  62 )

 Molecular orbitals read from record     2100.2  Type=RHF/CANONICAL (state 1.1)

 MP2-F12 correlation treatment (H.-J. Werner, 2006)
 ==================================================

 Using MP2-F12 with ansatz 3C(FIX)

 Using projected zeroth-order Hamiltonian (+Z)

 FOCKRIB=T FOCKRIC=T FOCKRIP=T CABSP=T CABSA=T CABSK=T CABSF=T GBC=F EBC=F DMAT=T NOFIK=T NOPAO=1 SOLVE=-1  USEPAO=0
 EXCH_A= T EXCH_B= F EXCH_C= F EXCH_P= F

 Geminal basis:    OPTFULL  GEM_TYPE=SLATER  BETA=1.0  NGEM=6

 Optimizing Gaussian exponents for each gem_beta

 Geminal optimization for beta= 1.0000
 Weight function:   m=0, omega= 1.4646

 Augmented Hessian optimization of geminal fit. Trust ratio= 0.40000
 Convergence reached after   2 iterations. Final gradient= 8.66D-16, Step= 4.23D-06, Delta= 1.28D-09

 Alpha:                 0.19532     0.81920     2.85917     9.50073    35.69989   197.79328
 Coeff:                 0.27070     0.30552     0.18297     0.10986     0.06810     0.04224


 Symmetry turned off. Reference energy:       -115.098521476299

 All pairs explicitly correlated. Number of r12-pairs:           28

 Excluding core orbitals from MO domains

 AO(A)-basis ORBITAL           loaded. Number of functions:     178
 RI(R)-basis CC-PVTZ-F12/OPTRI loaded. Number of functions:     314
 DF-basis AUG-CC-PVTZ/JKFIT    loaded. Number of functions:     392

 Screening thresholds:   THRAO=  1.00D-10  THRMO=  1.00D-09  THRPROD=  1.00D-09
                         THRSW=  1.00D-05  THROV=  1.00D-12  THRAOF12= 1.00D-08

 CPU time for Fock operators                      5.53 sec

 Construction of ABS:
 Smallest eigenvalue of S          4.15E-04  (threshold= 1.00E-08)
 Ratio eigmin/eigmax               5.28E-05  (threshold= 1.00E-09)
 Smallest eigenvalue of S kept     4.15E-04  (threshold= 4.15E-04, 0 functions deleted, 314 kept)

 Construction of CABS:
 Smallest eigenvalue of S          6.90E-07  (threshold= 1.00E-08)
 Ratio eigmin/eigmax               6.90E-07  (threshold= 1.00E-09)
 Smallest eigenvalue of S kept     6.90E-07  (threshold= 6.90E-07, 0 functions deleted, 314 kept)

 CPU time for CABS singles                        0.04 sec

 CABS-singles contribution of  -0.00136286 patched into reference energy.
 New reference energy        -115.09988433

 AO(A)-basis ORBITAL           loaded. Number of functions:     178
 RI(R)-basis CC-PVTZ-F12/OPTRI loaded. Number of functions:     314
 DF-basis AUG-CC-PVTZ/MP2FIT   loaded. Number of functions:     396

 Screening thresholds:   THRAO=  1.00D-10  THRMO=  1.00D-09  THRPROD=  1.00D-09
                         THRSW=  1.00D-05  THROV=  1.00D-12  THRAOF12= 1.00D-08

 CPU time for 3-index integral evaluation         3.59 sec
 CPU time for first  half transformation          0.23 sec (10735.0 MFLOP/sec)
 CPU time for sorting                             0.02 sec
 CPU time for fitting                             0.02 sec (56971.3 MFLOP/sec)
 CPU time for tilde quantities                    0.03 sec (50348.4 MFLOP/sec)
 CPU time for assembly                            0.20 sec (61768.0 MFLOP/sec)
 CPU time for tranop_f12                          0.26 sec (61000.9 MFLOP/sec)
 CPU time for f12 integrals (total)               7.33 sec, Elapsed time:      7.73 sec
 CPU time for f12 matrices (total)                0.10 sec, Elapsed time:      0.14 sec

 Diagonal F12 approximation with fixed coefficients:  TSING= 0.500,  TTRIP= 0.250 (scaled by -1/beta)

 DF-MP2-F12 energy corrections:
 ==============================
 Approx.                                    Singlet             Triplet             Total
 DF-MP2-F12/3*C(DX,FIX)                -0.038336899987     -0.004218776696     -0.042555676684
 DF-MP2-F12/3*C(FIX)                   -0.036126667279     -0.003935529918     -0.040062197197
 DF-MP2-F12/3C(FIX)                    -0.036069131220     -0.004070307274     -0.040139438495

 DF-MP2-F12 correlation energies:
 ================================
 Approx.                                    Singlet             Triplet             Ecorr            Total Energy
 DF-MP2                                -0.290903867319     -0.152360811016     -0.443264678335   -115.543149009787
 DF-MP2-F12/3*C(DX,FIX)                -0.329240767307     -0.156579587713     -0.485820355019   -115.585704686470
 DF-MP2-F12/3*C(FIX)                   -0.327030534598     -0.156296340934     -0.483326875532   -115.583211206983
 DF-MP2-F12/3C(FIX)                    -0.326972998540     -0.156431118291     -0.483404116830   -115.583288448281

 SCS-DF-MP2 energies (F_SING= 1.20000  F_TRIP= 0.62222  F_PARALLEL= 0.33333):
 ============================================================================
 SCS-DF-MP2                            -0.443886923193   -115.543771254644
 SCS-DF-MP2-F12/3*C(DX,FIX)            -0.492516219789   -115.592400551240
 SCS-DF-MP2-F12/3*C(FIX)               -0.489687698099   -115.589572029550
 SCS-DF-MP2-F12/3C(FIX)                -0.489702516295   -115.589586847746

 Symmetry restored.
 Symmetry transformation completed.

 Number of N-1 electron functions:               7
 Number of N-2 electron functions:              28
 Number of singly external CSFs:               659
 Number of doubly external CSFs:            355020
 Total number of CSFs:                      355680

 Length of J-op  integral file:             103.49 MB
 Length of K-op  integral file:             127.95 MB

 Integral transformation finished. Total CPU:   0.46 sec, npass=  1  Memory used:   0.67 MW

 ITER.      SQ.NORM     CORR.ENERGY   TOTAL ENERGY   ENERGY CHANGE     VAR   MIC
   1      1.00000000    -0.44333076  -115.54321509    -0.44333076  0.00D+00   0
   2      1.11432453    -0.44333076  -115.54321509    -0.00000000  0.84D-15   0

 Solving MP2-F12 equations

   1      1.11428874    -0.48271261  -115.58259694    -0.03938185 -0.37D-04   0
   2      1.11428874    -0.48346881  -115.58335314    -0.00075620 -0.51D-18   0
   3      1.11428874    -0.48346881  -115.58335314     0.00000000 -0.14D-18   0

 CPU TIME FOR ITERATIVE MP2:    0.04 SEC


 MP2-F12 energy corrections:
 ===========================
 Approx.                                    Singlet             Triplet             Total
 MP2-F12/3*C(DX,FIX)                   -0.038336899987     -0.004218776696     -0.042555676684
 MP2-F12/3*C(FIX)                      -0.036126667279     -0.003935529918     -0.040062197197
 MP2-F12/3C(FIX)                       -0.036066434451     -0.004071618780     -0.040138053231

 MP2-F12 correlation energies:
 =============================
 Approx.                                    Singlet             Triplet             Ecorr            Total Energy
 MP2                                   -0.291086947540     -0.152243808708     -0.443330756248   -115.543215087699
 MP2-F12/3*C(DX,FIX)                   -0.329423847528     -0.156462585405     -0.485886432932   -115.585770764383
 MP2-F12/3*C(FIX)                      -0.327213614819     -0.156179338626     -0.483392953445   -115.583277284896
 MP2-F12/3C(FIX)                       -0.327153381991     -0.156315427488     -0.483468809479   -115.583353140930

 SCS-MP2 energies (F_SING= 1.20000  F_TRIP= 0.62222  F_PARALLEL= 0.33333):
 =========================================================================
 SCS-MP2                               -0.444033818022   -115.543918149473
 SCS-MP2-F12/3*C(DX,FIX)               -0.492663114618   -115.592547446069
 SCS-MP2-F12/3*C(FIX)                  -0.489834592928   -115.589718924379
 SCS-MP2-F12/3C(FIX)                   -0.489846991048   -115.589731322499


  Reference energy                   -115.098521476299
  F12 singles correction               -0.001362855153

 F12 singles corrections added to reference energy

  New reference energy               -115.099884331451

  F12/3C(F) singlet correction         -0.036066434451
  F12/3C(F) triplet correction         -0.004071618780
  F12/3C(F) total correction           -0.040138053231
  MP2-F12/3C(F) singlet pair energy    -0.327153381991
  MP2-F12/3C(F) triplet pair energy    -0.156315427488
  MP2-F12/3C(F) correlation energy     -0.483468809479

 !MP2-F12/3C(F) total energy         -115.583353140930


 **********************************************************************************************************************************
 DATASETS  * FILE   NREC   LENGTH (MB)   RECORD NAMES
              1      20      317.77       500      610      700      900      950      970     1000      129      960     1100   
                                          VAR    BASINP    GEOM    SYMINP    ZMAT    AOBASIS   BASIS     P2S    ABASIS      S 
                                         1400     1410     1200     1210     1080     1600     1650     1300     1700     1380   
                                           T        V       H0       H01     AOSYM     SMH    MOLCAS    ERIS     OPER     JKOP   

              2       7        3.55       700     1000      520     2100     7360     7350     7000   
                                         GEOM     BASIS   MCVARS     RHF    F12ABS    EF12   

 PROGRAMS   *        TOTAL   MP2-F12    HF-SCF       INT
 CPU TIMES  *        23.26     13.72      3.18      6.24
 REAL TIME  *       220.26 SEC
 DISK USED  *         1.13 GB
 **********************************************************************************************************************************


 PROGRAM * CCSD (Closed-shell coupled cluster)     Authors: C. Hampel, H.-J. Werner, 1991, M. Deegan, P.J. Knowles, 1992

                                  CCSD-F12 implementation by  H.-J. Werner, 2007

                   Density fitting integral evaluation by F.R. Manby, 2003,2007, G. Knizia, 2010



 Convergence thresholds:  THRVAR = 1.00D-08  THRDEN = 1.00D-06

 CCSD(T)     terms to be evaluated (factor= 1.000)


 Number of core orbitals:           2 (   2   0 )
 Number of closed-shell orbitals:   7 (   5   2 )
 Number of external orbitals:     169 ( 107  62 )

 Molecular orbitals read from record     2100.2  Type=RHF/CANONICAL (state 1.1)

 MP2-F12 correlation treatment (H.-J. Werner, 2006)
 ==================================================

 Using MP2-F12 with ansatz 3C(FIX)

 Using projected zeroth-order Hamiltonian (+Z)

 FOCKRIB=T FOCKRIC=T FOCKRIP=T CABSP=T CABSA=T CABSK=T CABSF=T GBC=F EBC=F DMAT=T NOFIK=T NOPAO=1 SOLVE=-1  USEPAO=0
 EXCH_A= T EXCH_B= F EXCH_C= F EXCH_P= F

 Geminal basis:    OPTFULL  GEM_TYPE=SLATER  BETA=1.0  NGEM=6

 Optimizing Gaussian exponents for each gem_beta

 Geminal optimization for beta= 1.0000
 Weight function:   m=0, omega= 1.4646

 Augmented Hessian optimization of geminal fit. Trust ratio= 0.40000
 Convergence reached after   2 iterations. Final gradient= 8.66D-16, Step= 4.23D-06, Delta= 1.28D-09

 Alpha:                 0.19532     0.81920     2.85917     9.50073    35.69989   197.79328
 Coeff:                 0.27070     0.30552     0.18297     0.10986     0.06810     0.04224


 Symmetry turned off. Reference energy:       -115.098521476299

 All pairs explicitly correlated. Number of r12-pairs:           28

 Excluding core orbitals from MO domains

 AO(A)-basis ORBITAL           loaded. Number of functions:     178
 RI(R)-basis CC-PVTZ-F12/OPTRI loaded. Number of functions:     314
 DF-basis AUG-CC-PVTZ/JKFIT    loaded. Number of functions:     392

 Screening thresholds:   THRAO=  1.00D-10  THRMO=  1.00D-09  THRPROD=  1.00D-09
                         THRSW=  1.00D-05  THROV=  1.00D-12  THRAOF12= 1.00D-08

 CPU time for Fock operators                      5.56 sec

 Construction of ABS:
 Smallest eigenvalue of S          4.15E-04  (threshold= 1.00E-08)
 Ratio eigmin/eigmax               5.28E-05  (threshold= 1.00E-09)
 Smallest eigenvalue of S kept     4.15E-04  (threshold= 4.15E-04, 0 functions deleted, 314 kept)

 Construction of CABS:
 Smallest eigenvalue of S          6.90E-07  (threshold= 1.00E-08)
 Ratio eigmin/eigmax               6.90E-07  (threshold= 1.00E-09)
 Smallest eigenvalue of S kept     6.90E-07  (threshold= 6.90E-07, 0 functions deleted, 314 kept)

 CPU time for CABS singles                        0.04 sec

 CABS-singles contribution of  -0.00136286 patched into reference energy.
 New reference energy        -115.09988433

 AO(A)-basis ORBITAL           loaded. Number of functions:     178
 RI(R)-basis CC-PVTZ-F12/OPTRI loaded. Number of functions:     314
 DF-basis AUG-CC-PVTZ/MP2FIT   loaded. Number of functions:     396

 Screening thresholds:   THRAO=  1.00D-10  THRMO=  1.00D-09  THRPROD=  1.00D-09
                         THRSW=  1.00D-05  THROV=  1.00D-12  THRAOF12= 1.00D-08

 CPU time for 3-index integral evaluation         3.53 sec
 CPU time for first  half transformation          0.30 sec ( 8230.2 MFLOP/sec)
 CPU time for second half transformation          0.01 sec ( 6217.0 MFLOP/sec)
 CPU time for sorting                             0.01 sec
 CPU time for fitting                             0.02 sec (56971.3 MFLOP/sec)
 CPU time for tilde quantities                    0.03 sec (50348.4 MFLOP/sec)
 CPU time for assembly                            0.20 sec (61768.0 MFLOP/sec)
 CPU time for tranop_f12                          0.27 sec (58741.6 MFLOP/sec)
 CPU time for f12 integrals (total)               7.38 sec, Elapsed time:      7.78 sec
 CPU time for f12 matrices (total)                0.11 sec, Elapsed time:      0.14 sec

 Diagonal F12 approximation with fixed coefficients:  TSING= 0.500,  TTRIP= 0.250 (scaled by -1/beta)

 DF-MP2-F12 energy corrections:
 ==============================
 Approx.                                    Singlet             Triplet             Total
 DF-MP2-F12/3*C(DX,FIX)                -0.038336899987     -0.004218776696     -0.042555676684
 DF-MP2-F12/3*C(FIX)                   -0.036126667279     -0.003935529918     -0.040062197197
 DF-MP2-F12/3C(FIX)                    -0.036069131220     -0.004070307274     -0.040139438495

 DF-MP2-F12 correlation energies:
 ================================
 Approx.                                    Singlet             Triplet             Ecorr            Total Energy
 DF-MP2                                -0.290903867319     -0.152360811016     -0.443264678335   -115.543149009787
 DF-MP2-F12/3*C(DX,FIX)                -0.329240767307     -0.156579587713     -0.485820355019   -115.585704686470
 DF-MP2-F12/3*C(FIX)                   -0.327030534598     -0.156296340934     -0.483326875532   -115.583211206983
 DF-MP2-F12/3C(FIX)                    -0.326972998540     -0.156431118291     -0.483404116830   -115.583288448281

 SCS-DF-MP2 energies (F_SING= 1.20000  F_TRIP= 0.62222  F_PARALLEL= 0.33333):
 ============================================================================
 SCS-DF-MP2                            -0.443886923193   -115.543771254644
 SCS-DF-MP2-F12/3*C(DX,FIX)            -0.492516219789   -115.592400551240
 SCS-DF-MP2-F12/3*C(FIX)               -0.489687698099   -115.589572029550
 SCS-DF-MP2-F12/3C(FIX)                -0.489702516295   -115.589586847746

 Symmetry restored.
 Symmetry transformation completed.

 Number of N-1 electron functions:               7
 Number of N-2 electron functions:              28
 Number of singly external CSFs:               659
 Number of doubly external CSFs:            355020
 Total number of CSFs:                      355680

 Length of J-op  integral file:             103.62 MB
 Length of K-op  integral file:             127.95 MB
 Length of 3-ext integral record:             0.00 MB

 Memory could be reduced to 24.20 Mwords without degradation in triples

 Integral transformation finished. Total CPU:   1.28 sec, npass=  1  Memory used:   7.45 MW

 Reference energy:                   -115.09988433

 Adding F12 terms to K(Cij), methodcc=6,  factor= 1.0

 ITER.      SQ.NORM     CORR.ENERGY   TOTAL ENERGY   ENERGY CHANGE        DEN1      VAR(S)    VAR(P)  DIIS     TIME  TIME/IT
   1      1.11713964    -0.45262663  -115.55251096    -0.00929588     0.00164438  0.15D-02  0.19D-02  1  1    15.33     0.92
   2      1.12447348    -0.45297469  -115.55285903    -0.00034806    -0.00899906  0.24D-04  0.23D-03  2  2    16.23     0.96
   3      1.12715627    -0.45314834  -115.55303267    -0.00017365    -0.00184183  0.15D-04  0.13D-04  3  3    17.13     0.98
   4      1.12808812    -0.45316625  -115.55305059    -0.00001791    -0.00059244  0.86D-06  0.12D-05  4  4    18.03     0.99
   5      1.12824215    -0.45316762  -115.55305195    -0.00000136    -0.00003758  0.23D-06  0.99D-07  5  5    18.93     0.99
   6      1.12828447    -0.45316524  -115.55304957     0.00000238    -0.00000419  0.36D-07  0.95D-08  6  6    19.83     0.99
   7      1.12829562    -0.45316437  -115.55304871     0.00000086    -0.00000295  0.40D-08  0.14D-08  6  1    20.74     0.99
   8      1.12829744    -0.45316444  -115.55304877    -0.00000006     0.00000034  0.67D-09  0.20D-09  6  3    21.66     1.00

 Norm of t1 vector:      0.04983472      S-energy:    -0.00000035      T1 diagnostic:  0.00941788
                                                                       D1 diagnostic:  0.02003626

 Adding energy correction from Wij-K(Fij), methodcc=6  factor= 1.0

  CCSD correlation energy              -0.453164438726
  MP2-F12 correction (uncoupled)       -0.038589539845
  C*T doubles correction               -0.001164055333
  f12b correction                       0.007098759540


 Total CPU time for triples:     14.39 sec


 RESULTS
 =======

  Reference energy                   -115.098521476299
  F12 singles correction               -0.001362855153

 F12 singles corrections added to reference energy

  New reference energy               -115.099884331451

  F12a singlet correction              -0.035830425183
  F12a triplet correction              -0.003923169994
  F12a total correction                -0.039753595178

 F12a corrections for ansatz F12/3C(FIX) added to CCSD energy

  CCSD-F12a singlet pair energy        -0.350937031489
  CCSD-F12a triplet pair energy        -0.141980647730
  CCSD-F12a correlation energy         -0.492918033904

  Triples (T) contribution             -0.015962044926
  Total correlation energy             -0.508880078830

  CCSD-F12a total energy             -115.592802365355
  CCSD[T]-F12a energy                -115.609312135408
  CCSD-T-F12a energy                 -115.608523040186
 !CCSD(T)-F12a total energy          -115.608764410281

 F12b corrections for ansatz F12/3C(FIX) added to CCSD(T)-F12a energy

  CCSD-F12b singlet pair energy        -0.344300964739
  CCSD-F12b triplet pair energy        -0.141517954939
  CCSD-F12b correlation energy         -0.485819274364

  Triples (T) contribution             -0.015962044926
  Total correlation energy             -0.501781319289

  CCSD-F12b total energy             -115.585703605815
  CCSD[T]-F12b energy                -115.602213375867
  CCSD-T-F12b energy                 -115.601424280646
 !CCSD(T)-F12b total energy          -115.601665650740

 Timing summary (sec):

 STEP                 CPU(USER)    SYS     CPU(TOT)    WALL
 Transformation          1.29      0.17      1.46      1.47
 CCSD iterations         7.21      0.78      7.99      7.99
 Triples                14.39      0.52     14.91     14.97
 MP2-F12                13.17      0.59     13.76     13.94
 F12b energy             0.74      0.06      0.80      0.81

 Program statistics:

 Available memory in ccsd:               499999650
 Min. memory needed in ccsd:               1149135
 Max. memory used in ccsd:                 1443104
 Max. memory used in cckext:               1888566 ( 9 integral passes)



 **********************************************************************************************************************************
 DATASETS  * FILE   NREC   LENGTH (MB)   RECORD NAMES
              1      20      386.33       500      610      700      900      950      970     1000      129      960     1100   
                                          VAR    BASINP    GEOM    SYMINP    ZMAT    AOBASIS   BASIS     P2S    ABASIS      S 
                                         1400     1410     1200     1210     1080     1600     1650     1300     1700     1380   
                                           T        V       H0       H01     AOSYM     SMH    MOLCAS    ERIS     OPER     JKOP   

              2       7        3.55       700     1000      520     2100     7360     7350     7000   
                                         GEOM     BASIS   MCVARS     RHF    F12ABS    EF12   

 PROGRAMS   *        TOTAL   CCSD(T)   MP2-F12    HF-SCF       INT
 CPU TIMES  *        60.09     36.83     13.72      3.18      6.24
 REAL TIME  *       259.50 SEC
 DISK USED  *         1.13 GB
 **********************************************************************************************************************************
 SETTING XXX            =    "MMM"
 SETTING POINT          =        47.00000000                                  

 *** ### CH3OH


 XXX       RCO          ROH          RCH1         RCH2         RCH3           ACOH           AOCH1          AOCH2          AOCH3         AHH1           AHH2           AHH3            ENERGY       POINT
 "MMM"   1.42077677   0.96013932   1.09171752   1.05940070   1.09171752   108.12930637   111.65221523   107.18733878   111.65221523   61.43364279   180.00000000   298.56635721   -115.60876441   47.0000
                                                  

 CCSD(T)-F12/cc-pVTZ-F12 energy=   -115.601665650740

     CCSD(T)-F12         MP2-F12          HF-SCF
   -115.60166565   -115.58335314   -115.09852148
 **********************************************************************************************************************************
 Molpro calculation terminated
