
 Primary working directories    : /tmpdir/job/2955645.undefined/molpro.CGEvnax08j
 Secondary working directories  : /tmpdir/job/2955645.undefined/molpro.CGEvnax08j
 Wavefunction directory         : /home/zcaposm/wfu/
 Main file repository           : /tmpdir/job/2955645.undefined/molpro.CGEvnax08j/

 id        : uclcc

 Nodes                         nprocs
 node-d00a-085.myriad.ucl.ac.uk    1

 Using customized tuning parameters: mindgm=1; mindgv=20; mindgc=4; mindgr=1; noblas=0; minvec=7
 default implementation of scratch files=df  


 Variables initialized (945), CPU time= 0.01 sec
 ***,Methanol Ground State Energy with CCSD(T)-F12 and cc-pVTZ-F12
 memory,500,m;
 
 geometry={angstrom
 c
 o , 1, rco
 h , 2, roh, 1, acoh
 h1, 1, rch1, 2, aoch1  3  ahh1
 h2, 1, rch2, 2, aoch2, 3, ahh2
 h3, 1, rch3, 2, aoch3, 3, ahh3
 }
 
                                                ! Specify the initial values of the internal coordinates (in Angstroms and degrees)
 
 rco= 1.42077677
 roh= 0.96013932
 rch1= 1.091717515605
 rch2= 1.08440070258
 rch3= 1.091717515605
 acoh= 108.12930637
 aoch1= 111.6522152299
 aoch2= 106.68733878260001
 aoch3= 111.6522152299
 ahh1=61.43364279
 ahh2=180.0
 ahh3=298.56635721
 
                                                                                 ! Use the cc-pVTZ-F12 basis set
 basis=cc-pVTZ-F12
 
 hf
 
                                                                                 ! Use explicitly correlated F12 methods
                                                                            ! First, MP2-F12 (useful for initial electronic energy)
 {mp2-f12}
 
                                                                        ! If desired, perform CCSD(T)-F12 for more accurate results
 {ccsd(t)-f12}
 
                                                                                 ! Output the energy
 xxx = "mmm"
 point = 77
 text ### CH3OH
 table,xxx,rco,roh,rch1,rch2,rch3,acoh,aoch1,aoch2,aoch3,ahh1,ahh2,ahh3,energy,point
 DIGITS, 0, 8, 8, 8, 8, 8, 8, 8, 8, 8,  8,  8,  8, 8, 4
 save,CH3OH_MEP_MP2_77.dat,new
 
 Commands  initialized (802), CPU time= 0.02 sec, 659 directives.
 Default parameters read. Elapsed time= 1.09 sec

 Checking input...
 Passed
1


                                         ***  PROGRAM SYSTEM MOLPRO  ***
                                       Copyright, TTI GmbH Stuttgart, 2015
                                    Version 2020.1 linked Oct  6 2020 12:04:11


 **********************************************************************************************************************************
 LABEL *   Methanol Ground State Energy with CCSD(T)-F12 and cc-pVTZ-F12                 
  64 bit serial version                                                                  DATE: 08-Oct-24          TIME: 17:30:44  
 **********************************************************************************************************************************

 SHA1:             8c27446f6450a7499e38f603e13c65f775101d37
 **********************************************************************************************************************************

 Memory per process:       500 MW
 Total memory per node:    500 MW

 GA preallocation disabled
 GA check disabled

 Variable memory set to 500.0 MW

 SETTING RCO            =         1.42077677                                  
 SETTING ROH            =         0.96013932                                  
 SETTING RCH1           =         1.09171752                                  
 SETTING RCH2           =         1.08440070                                  
 SETTING RCH3           =         1.09171752                                  
 SETTING ACOH           =       108.12930637                                  
 SETTING AOCH1          =       111.65221523                                  
 SETTING AOCH2          =       106.68733878                                  
 SETTING AOCH3          =       111.65221523                                  
 SETTING AHH1           =        61.43364279                                  
 SETTING AHH2           =       180.00000000                                  
 SETTING AHH3           =       298.56635721                                  
 SETTING BASIS          =    CC-PVTZ-F12


 Recomputing integrals since basis changed


 Using spherical harmonics

 Library entry C      S cc-pVTZ-F12          selected for orbital group  1
 Library entry C      P cc-pVTZ-F12          selected for orbital group  1
 Library entry C      D cc-pVTZ-F12          selected for orbital group  1
 Library entry C      F cc-pVTZ-F12          selected for orbital group  1
 Library entry O      S cc-pVTZ-F12          selected for orbital group  2
 Library entry O      P cc-pVTZ-F12          selected for orbital group  2
 Library entry O      D cc-pVTZ-F12          selected for orbital group  2
 Library entry O      F cc-pVTZ-F12          selected for orbital group  2
 Library entry H      S cc-pVTZ-F12          selected for orbital group  3
 Library entry H      P cc-pVTZ-F12          selected for orbital group  3
 Library entry H      D cc-pVTZ-F12          selected for orbital group  3


 PROGRAM * SEWARD (Integral evaluation for generally contracted gaussian basis sets)     Author: Roland Lindh, 1990

 Geometry written to block  1 of record 700

 Orientation using atomic masses  
 Molecule type: Asymmetric top
 Symmetry elements: X
 Rotational constants:      23.9734898     24.8322072    128.5658886 GHz  (calculated with average atomic masses)

 Point group  Cs  



 ATOMIC COORDINATES

 NR  ATOM    CHARGE       X              Y              Z

   1  C       6.00    0.000000000    0.024925180   -1.377128562
   2  O       8.00    0.000000000   -0.121428301    1.303758566
   3  H       1.00    0.000000000    1.569560465    1.961486204
   4  H1      1.00    1.684053272    0.981948779   -2.087222770
   5  H3      1.00   -1.684053272    0.981948779   -2.087222770
   6  H2      1.00    0.000000000   -1.903000238   -2.071684228

 Bond lengths in Bohr (Angstrom)

 1-2  2.684878979  1-4  2.063047110  1-5  2.063047110  1-6  2.049220337  2-3  1.814400356
     ( 1.420776770)     ( 1.091717516)     ( 1.091717516)     ( 1.084400703)     ( 0.960139320)

 Bond angles

  1-2-3  108.12930637   2-1-4  111.65221523   2-1-5  111.65221523   2-1-6  106.68733878

  4-1-5  109.43105099   4-1-6  108.64899221   5-1-6  108.64899221

 NUCLEAR CHARGE:                   18
 NUMBER OF PRIMITIVE AOS:         228
 NUMBER OF SYMMETRY AOS:          206
 NUMBER OF CONTRACTIONS:          178   (  114A'  +   64A"  )
 NUMBER OF INNER CORE ORBITALS:     0   (    0A'  +    0A"  )
 NUMBER OF OUTER CORE ORBITALS:     2   (    2A'  +    0A"  )
 NUMBER OF VALENCE ORBITALS:       12   (    9A'  +    3A"  )


 NUCLEAR REPULSION ENERGY   40.35145879

 Eigenvalues of metric

         1 0.879E-04 0.183E-03 0.309E-03 0.460E-03 0.493E-03 0.560E-03 0.616E-03 0.621E-03
         2 0.322E-03 0.570E-03 0.686E-03 0.177E-02 0.337E-02 0.494E-02 0.649E-02 0.870E-02


 Contracted 2-electron integrals neglected if value below      1.0D-11
 AO integral compression algorithm  1   Integral accuracy      1.0D-11

     331.612 MB (compressed) written to integral file ( 53.5%)


 NUMBER OF SORTED TWO-ELECTRON INTEGRALS:   64554730.     BUFFER LENGTH:  32768
 NUMBER OF SEGMENTS:   5  SEGMENT LENGTH:   15997996      RECORD LENGTH: 524288

 Memory used in sort:      16.56 MW

 SORT1 READ    77497885. AND WROTE    63556604. INTEGRALS IN    184 RECORDS. CPU TIME:     1.34 SEC, REAL TIME:    14.50 SEC
 SORT2 READ    63556604. AND WROTE    64554730. INTEGRALS IN   1265 RECORDS. CPU TIME:     1.41 SEC, REAL TIME:    14.72 SEC

 FILE SIZES:   FILE 1:   362.5 MBYTE,  FILE 4:   771.8 MBYTE,   TOTAL:   1134.3 MBYTE

 OPERATOR DM      FOR CENTER  0  COORDINATES:    0.000000    0.000000    0.000000


 **********************************************************************************************************************************
 DATASETS  * FILE   NREC   LENGTH (MB)   RECORD NAMES
              1      19      311.91       500      610      700      900      950      970     1000      129      960     1100   
                                          VAR    BASINP    GEOM    SYMINP    ZMAT    AOBASIS   BASIS     P2S    ABASIS      S 
                                         1400     1410     1200     1210     1080     1600     1650     1300     1700   
                                           T        V       H0       H01     AOSYM     SMH    MOLCAS    ERIS     OPER   

 PROGRAMS   *        TOTAL       INT
 CPU TIMES  *         6.58      6.32
 REAL TIME  *        44.32 SEC
 DISK USED  *         1.13 GB
 **********************************************************************************************************************************


 PROGRAM * RHF-SCF (CLOSED SHELL)       Authors: W. Meyer, H.-J. Werner


 NUMBER OF ELECTRONS:       9+    9-
 CONVERGENCE THRESHOLDS:    1.00E-05 (Density)    1.00E-07 (Energy)
 MAX. NUMBER OF ITERATIONS:       60
 INTERPOLATION TYPE:            DIIS
 INTERPOLATION STEPS:              2 (START)      1 (STEP)
 LEVEL SHIFTS:                  0.00 (CLOSED)  0.00 (OPEN) 



 Orbital guess generated from atomic densities. Full valence occupancy:   11   3

 Molecular orbital dump at record        2100.2

 Initial occupancy:   7   2

 ITERATION    DDIFF          GRAD             ENERGY        2-EL.EN.            DIPOLE MOMENTS         DIIS   ORB.
    1      0.000D+00      0.000D+00      -115.06233412    164.499788    0.00000    0.90507   -0.47743    0    start
    2      0.000D+00      0.669D-02      -115.09070277    161.914307    0.00000    0.49628   -0.30294    1    diag
    3      0.653D-02      0.366D-02      -115.09821151    163.179046    0.00000    0.60003   -0.39647    2    diag
    4      0.222D-02      0.720D-03      -115.09874393    163.002599    0.00000    0.59494   -0.39199    3    diag
    5      0.593D-03      0.145D-03      -115.09877836    163.014097    0.00000    0.59096   -0.39685    4    diag
    6      0.165D-03      0.270D-04      -115.09877993    163.011862    0.00000    0.59110   -0.39765    5    diag
    7      0.475D-04      0.574D-05      -115.09878000    163.011487    0.00000    0.59092   -0.39793    6    diag
    8      0.119D-04      0.150D-05      -115.09878001    163.011835    0.00000    0.59091   -0.39795    7    diag
    9      0.235D-05      0.471D-06      -115.09878001    163.011671    0.00000    0.59089   -0.39796    0    orth

 Final occupancy:   7   2

 !RHF STATE  1.1 Energy              -115.098780005368
 Nuclear energy                        40.35145879
 One-electron energy                 -236.95607405
 Two-electron energy                   81.50583525
 Virial quotient                       -1.00100569
 !RHF STATE  1.1 Dipole moment          0.00000000     0.59089172    -0.39795984
 Dipole moment /Debye                   0.00000000     1.50179857    -1.01144677

 Orbital energies:

         1.1          2.1          3.1          4.1          5.1          6.1          7.1          8.1          9.1
    -20.556193   -11.269737    -1.356892    -0.926237    -0.691032    -0.593785    -0.504668     0.054649     0.065056

         1.2          2.2          3.2          4.2
     -0.621556    -0.452103     0.073792     0.181510


 HOMO      2.2    -0.452103 =     -12.3023eV
 LUMO      8.1     0.054649 =       1.4871eV
 LUMO-HOMO         0.506752 =      13.7894eV


 **********************************************************************************************************************************
 DATASETS  * FILE   NREC   LENGTH (MB)   RECORD NAMES
              1      19      311.91       500      610      700      900      950      970     1000      129      960     1100   
                                          VAR    BASINP    GEOM    SYMINP    ZMAT    AOBASIS   BASIS     P2S    ABASIS      S 
                                         1400     1410     1200     1210     1080     1600     1650     1300     1700   
                                           T        V       H0       H01     AOSYM     SMH    MOLCAS    ERIS     OPER   

              2       4        3.18       700     1000      520     2100   
                                         GEOM     BASIS   MCVARS     RHF  

 PROGRAMS   *        TOTAL    HF-SCF       INT
 CPU TIMES  *         9.60      3.02      6.32
 REAL TIME  *        49.19 SEC
 DISK USED  *         1.13 GB
 **********************************************************************************************************************************


 PROGRAM * MP2 (Closed-shell)     Authors: C. Hampel, H.-J. Werner, 1991, M. Deegan, P.J. Knowles, 1992

                                   MP2-F12 implementation by H.-J. Werner, 2007

                   Density fitting integral evaluation by F.R. Manby, 2003,2007, G. Knizia, 2010


 Basis set AUG-CC-PVTZ/JKFIT generated.  Number of basis functions:   392 
 Basis set CC-PVTZ-F12/OPTRI generated.  Number of basis functions:   314 
 Basis set AUG-CC-PVTZ/MP2FIT generated. Number of basis functions:   396 

 Convergence thresholds:  THRVAR = 1.00D-08  THRDEN = 1.00D-06

 Number of core orbitals:           2 (   2   0 )
 Number of closed-shell orbitals:   7 (   5   2 )
 Number of external orbitals:     169 ( 107  62 )

 Molecular orbitals read from record     2100.2  Type=RHF/CANONICAL (state 1.1)

 MP2-F12 correlation treatment (H.-J. Werner, 2006)
 ==================================================

 Using MP2-F12 with ansatz 3C(FIX)

 Using projected zeroth-order Hamiltonian (+Z)

 FOCKRIB=T FOCKRIC=T FOCKRIP=T CABSP=T CABSA=T CABSK=T CABSF=T GBC=F EBC=F DMAT=T NOFIK=T NOPAO=1 SOLVE=-1  USEPAO=0
 EXCH_A= T EXCH_B= F EXCH_C= F EXCH_P= F

 Geminal basis:    OPTFULL  GEM_TYPE=SLATER  BETA=1.0  NGEM=6

 Optimizing Gaussian exponents for each gem_beta

 Geminal optimization for beta= 1.0000
 Weight function:   m=0, omega= 1.4646

 Augmented Hessian optimization of geminal fit. Trust ratio= 0.40000
 Convergence reached after   2 iterations. Final gradient= 8.66D-16, Step= 4.23D-06, Delta= 1.28D-09

 Alpha:                 0.19532     0.81920     2.85917     9.50073    35.69989   197.79328
 Coeff:                 0.27070     0.30552     0.18297     0.10986     0.06810     0.04224


 Symmetry turned off. Reference energy:       -115.098780005368

 All pairs explicitly correlated. Number of r12-pairs:           28

 Excluding core orbitals from MO domains

 AO(A)-basis ORBITAL           loaded. Number of functions:     178
 RI(R)-basis CC-PVTZ-F12/OPTRI loaded. Number of functions:     314
 DF-basis AUG-CC-PVTZ/JKFIT    loaded. Number of functions:     392

 Screening thresholds:   THRAO=  1.00D-10  THRMO=  1.00D-09  THRPROD=  1.00D-09
                         THRSW=  1.00D-05  THROV=  1.00D-12  THRAOF12= 1.00D-08

 CPU time for Fock operators                      5.63 sec

 Construction of ABS:
 Smallest eigenvalue of S          4.36E-04  (threshold= 1.00E-08)
 Ratio eigmin/eigmax               5.57E-05  (threshold= 1.00E-09)
 Smallest eigenvalue of S kept     4.36E-04  (threshold= 4.36E-04, 0 functions deleted, 314 kept)

 Construction of CABS:
 Smallest eigenvalue of S          7.27E-07  (threshold= 1.00E-08)
 Ratio eigmin/eigmax               7.27E-07  (threshold= 1.00E-09)
 Smallest eigenvalue of S kept     7.27E-07  (threshold= 7.27E-07, 0 functions deleted, 314 kept)

 CPU time for CABS singles                        0.04 sec

 CABS-singles contribution of  -0.00135319 patched into reference energy.
 New reference energy        -115.10013320

 AO(A)-basis ORBITAL           loaded. Number of functions:     178
 RI(R)-basis CC-PVTZ-F12/OPTRI loaded. Number of functions:     314
 DF-basis AUG-CC-PVTZ/MP2FIT   loaded. Number of functions:     396

 Screening thresholds:   THRAO=  1.00D-10  THRMO=  1.00D-09  THRPROD=  1.00D-09
                         THRSW=  1.00D-05  THROV=  1.00D-12  THRAOF12= 1.00D-08

 CPU time for 3-index integral evaluation         3.41 sec
 CPU time for first  half transformation          0.22 sec (11223.0 MFLOP/sec)
 CPU time for second half transformation          0.01 sec ( 6217.0 MFLOP/sec)
 CPU time for sorting                             0.02 sec
 CPU time for fitting                             0.03 sec (37980.8 MFLOP/sec)
 CPU time for tilde quantities                    0.03 sec (50348.4 MFLOP/sec)
 CPU time for assembly                            0.20 sec (61768.0 MFLOP/sec)
 CPU time for tranop_f12                          0.29 sec (54690.4 MFLOP/sec)
 CPU time for f12 integrals (total)               7.23 sec, Elapsed time:      7.59 sec
 CPU time for f12 matrices (total)                0.11 sec, Elapsed time:      0.16 sec

 Diagonal F12 approximation with fixed coefficients:  TSING= 0.500,  TTRIP= 0.250 (scaled by -1/beta)

 DF-MP2-F12 energy corrections:
 ==============================
 Approx.                                    Singlet             Triplet             Total
 DF-MP2-F12/3*C(DX,FIX)                -0.038288593869     -0.004213150542     -0.042501744411
 DF-MP2-F12/3*C(FIX)                   -0.036089376741     -0.003931406394     -0.040020783135
 DF-MP2-F12/3C(FIX)                    -0.036032141592     -0.004066423316     -0.040098564908

 DF-MP2-F12 correlation energies:
 ================================
 Approx.                                    Singlet             Triplet             Ecorr            Total Energy
 DF-MP2                                -0.291104068722     -0.152367284201     -0.443471352923   -115.543604550388
 DF-MP2-F12/3*C(DX,FIX)                -0.329392662591     -0.156580434743     -0.485973097334   -115.586106294799
 DF-MP2-F12/3*C(FIX)                   -0.327193445463     -0.156298690595     -0.483492136058   -115.583625333523
 DF-MP2-F12/3C(FIX)                    -0.327136210314     -0.156433707517     -0.483569917830   -115.583703115295

 SCS-DF-MP2 energies (F_SING= 1.20000  F_TRIP= 0.62222  F_PARALLEL= 0.33333):
 ============================================================================
 SCS-DF-MP2                            -0.444131192636   -115.544264390101
 SCS-DF-MP2-F12/3*C(DX,FIX)            -0.492699021172   -115.592832218637
 SCS-DF-MP2-F12/3*C(FIX)               -0.489884653148   -115.590017850613
 SCS-DF-MP2-F12/3C(FIX)                -0.489899981498   -115.590033178963

 Symmetry restored.
 Symmetry transformation completed.

 Number of N-1 electron functions:               7
 Number of N-2 electron functions:              28
 Number of singly external CSFs:               659
 Number of doubly external CSFs:            355020
 Total number of CSFs:                      355680

 Length of J-op  integral file:             103.49 MB
 Length of K-op  integral file:             127.95 MB

 Integral transformation finished. Total CPU:   0.49 sec, npass=  1  Memory used:   0.67 MW

 ITER.      SQ.NORM     CORR.ENERGY   TOTAL ENERGY   ENERGY CHANGE     VAR   MIC
   1      1.00000000    -0.44353775  -115.54367095    -0.44353775  0.00D+00   0
   2      1.11473911    -0.44353775  -115.54367095     0.00000000 -0.29D-18   0

 Solving MP2-F12 equations

   1      1.11470284    -0.48287820  -115.58301139    -0.03934045 -0.37D-04   0
   2      1.11470284    -0.48363491  -115.58376810    -0.00075671 -0.26D-18   0
   3      1.11470284    -0.48363491  -115.58376810     0.00000000  0.10D-18   0

 CPU TIME FOR ITERATIVE MP2:    0.04 SEC


 MP2-F12 energy corrections:
 ===========================
 Approx.                                    Singlet             Triplet             Total
 MP2-F12/3*C(DX,FIX)                   -0.038288593869     -0.004213150542     -0.042501744411
 MP2-F12/3*C(FIX)                      -0.036089376741     -0.003931406394     -0.040020783135
 MP2-F12/3C(FIX)                       -0.036029438051     -0.004067718370     -0.040097156421

 MP2-F12 correlation energies:
 =============================
 Approx.                                    Singlet             Triplet             Ecorr            Total Energy
 MP2                                   -0.291287386854     -0.152250361976     -0.443537748830   -115.543670946295
 MP2-F12/3*C(DX,FIX)                   -0.329575980723     -0.156463512518     -0.486039493241   -115.586172690706
 MP2-F12/3*C(FIX)                      -0.327376763595     -0.156181768370     -0.483558531965   -115.583691729430
 MP2-F12/3C(FIX)                       -0.327316824905     -0.156318080345     -0.483634905250   -115.583768102715

 SCS-MP2 energies (F_SING= 1.20000  F_TRIP= 0.62222  F_PARALLEL= 0.33333):
 =========================================================================
 SCS-MP2                               -0.444278422788   -115.544411620252
 SCS-MP2-F12/3*C(DX,FIX)               -0.492846251324   -115.592979448788
 SCS-MP2-F12/3*C(FIX)                  -0.490031883300   -115.590165080764
 SCS-MP2-F12/3C(FIX)                   -0.490044773212   -115.590177970677


  Reference energy                   -115.098780005368
  F12 singles correction               -0.001353192096

 F12 singles corrections added to reference energy

  New reference energy               -115.100133197465

  F12/3C(F) singlet correction         -0.036029438051
  F12/3C(F) triplet correction         -0.004067718370
  F12/3C(F) total correction           -0.040097156421
  MP2-F12/3C(F) singlet pair energy    -0.327316824905
  MP2-F12/3C(F) triplet pair energy    -0.156318080345
  MP2-F12/3C(F) correlation energy     -0.483634905250

 !MP2-F12/3C(F) total energy         -115.583768102715


 **********************************************************************************************************************************
 DATASETS  * FILE   NREC   LENGTH (MB)   RECORD NAMES
              1      20      317.65       500      610      700      900      950      970     1000      129      960     1100   
                                          VAR    BASINP    GEOM    SYMINP    ZMAT    AOBASIS   BASIS     P2S    ABASIS      S 
                                         1400     1410     1200     1210     1080     1600     1650     1300     1700     1380   
                                           T        V       H0       H01     AOSYM     SMH    MOLCAS    ERIS     OPER     JKOP   

              2       7        3.55       700     1000      520     2100     7360     7350     7000   
                                         GEOM     BASIS   MCVARS     RHF    F12ABS    EF12   

 PROGRAMS   *        TOTAL   MP2-F12    HF-SCF       INT
 CPU TIMES  *        23.35     13.74      3.02      6.32
 REAL TIME  *        68.24 SEC
 DISK USED  *         1.13 GB
 **********************************************************************************************************************************


 PROGRAM * CCSD (Closed-shell coupled cluster)     Authors: C. Hampel, H.-J. Werner, 1991, M. Deegan, P.J. Knowles, 1992

                                  CCSD-F12 implementation by  H.-J. Werner, 2007

                   Density fitting integral evaluation by F.R. Manby, 2003,2007, G. Knizia, 2010



 Convergence thresholds:  THRVAR = 1.00D-08  THRDEN = 1.00D-06

 CCSD(T)     terms to be evaluated (factor= 1.000)


 Number of core orbitals:           2 (   2   0 )
 Number of closed-shell orbitals:   7 (   5   2 )
 Number of external orbitals:     169 ( 107  62 )

 Molecular orbitals read from record     2100.2  Type=RHF/CANONICAL (state 1.1)

 MP2-F12 correlation treatment (H.-J. Werner, 2006)
 ==================================================

 Using MP2-F12 with ansatz 3C(FIX)

 Using projected zeroth-order Hamiltonian (+Z)

 FOCKRIB=T FOCKRIC=T FOCKRIP=T CABSP=T CABSA=T CABSK=T CABSF=T GBC=F EBC=F DMAT=T NOFIK=T NOPAO=1 SOLVE=-1  USEPAO=0
 EXCH_A= T EXCH_B= F EXCH_C= F EXCH_P= F

 Geminal basis:    OPTFULL  GEM_TYPE=SLATER  BETA=1.0  NGEM=6

 Optimizing Gaussian exponents for each gem_beta

 Geminal optimization for beta= 1.0000
 Weight function:   m=0, omega= 1.4646

 Augmented Hessian optimization of geminal fit. Trust ratio= 0.40000
 Convergence reached after   2 iterations. Final gradient= 8.66D-16, Step= 4.23D-06, Delta= 1.28D-09

 Alpha:                 0.19532     0.81920     2.85917     9.50073    35.69989   197.79328
 Coeff:                 0.27070     0.30552     0.18297     0.10986     0.06810     0.04224


 Symmetry turned off. Reference energy:       -115.098780005368

 All pairs explicitly correlated. Number of r12-pairs:           28

 Excluding core orbitals from MO domains

 AO(A)-basis ORBITAL           loaded. Number of functions:     178
 RI(R)-basis CC-PVTZ-F12/OPTRI loaded. Number of functions:     314
 DF-basis AUG-CC-PVTZ/JKFIT    loaded. Number of functions:     392

 Screening thresholds:   THRAO=  1.00D-10  THRMO=  1.00D-09  THRPROD=  1.00D-09
                         THRSW=  1.00D-05  THROV=  1.00D-12  THRAOF12= 1.00D-08

 CPU time for Fock operators                      5.59 sec

 Construction of ABS:
 Smallest eigenvalue of S          4.36E-04  (threshold= 1.00E-08)
 Ratio eigmin/eigmax               5.57E-05  (threshold= 1.00E-09)
 Smallest eigenvalue of S kept     4.36E-04  (threshold= 4.36E-04, 0 functions deleted, 314 kept)

 Construction of CABS:
 Smallest eigenvalue of S          7.27E-07  (threshold= 1.00E-08)
 Ratio eigmin/eigmax               7.27E-07  (threshold= 1.00E-09)
 Smallest eigenvalue of S kept     7.27E-07  (threshold= 7.27E-07, 0 functions deleted, 314 kept)

 CPU time for CABS singles                        0.04 sec

 CABS-singles contribution of  -0.00135319 patched into reference energy.
 New reference energy        -115.10013320

 AO(A)-basis ORBITAL           loaded. Number of functions:     178
 RI(R)-basis CC-PVTZ-F12/OPTRI loaded. Number of functions:     314
 DF-basis AUG-CC-PVTZ/MP2FIT   loaded. Number of functions:     396

 Screening thresholds:   THRAO=  1.00D-10  THRMO=  1.00D-09  THRPROD=  1.00D-09
                         THRSW=  1.00D-05  THROV=  1.00D-12  THRAOF12= 1.00D-08

 CPU time for 3-index integral evaluation         3.42 sec
 CPU time for first  half transformation          0.30 sec ( 8230.2 MFLOP/sec)
 CPU time for second half transformation          0.01 sec ( 6217.0 MFLOP/sec)
 CPU time for fitting                             0.03 sec (37980.8 MFLOP/sec)
 CPU time for tilde quantities                    0.03 sec (50348.4 MFLOP/sec)
 CPU time for assembly                            0.21 sec (58826.6 MFLOP/sec)
 CPU time for tranop_f12                          0.25 sec (63440.9 MFLOP/sec)
 CPU time for f12 integrals (total)               7.20 sec, Elapsed time:      7.60 sec
 CPU time for f12 matrices (total)                0.10 sec, Elapsed time:      0.17 sec

 Diagonal F12 approximation with fixed coefficients:  TSING= 0.500,  TTRIP= 0.250 (scaled by -1/beta)

 DF-MP2-F12 energy corrections:
 ==============================
 Approx.                                    Singlet             Triplet             Total
 DF-MP2-F12/3*C(DX,FIX)                -0.038288593869     -0.004213150542     -0.042501744411
 DF-MP2-F12/3*C(FIX)                   -0.036089376741     -0.003931406394     -0.040020783135
 DF-MP2-F12/3C(FIX)                    -0.036032141592     -0.004066423316     -0.040098564908

 DF-MP2-F12 correlation energies:
 ================================
 Approx.                                    Singlet             Triplet             Ecorr            Total Energy
 DF-MP2                                -0.291104068722     -0.152367284201     -0.443471352923   -115.543604550388
 DF-MP2-F12/3*C(DX,FIX)                -0.329392662591     -0.156580434743     -0.485973097334   -115.586106294799
 DF-MP2-F12/3*C(FIX)                   -0.327193445463     -0.156298690595     -0.483492136058   -115.583625333523
 DF-MP2-F12/3C(FIX)                    -0.327136210314     -0.156433707517     -0.483569917830   -115.583703115295

 SCS-DF-MP2 energies (F_SING= 1.20000  F_TRIP= 0.62222  F_PARALLEL= 0.33333):
 ============================================================================
 SCS-DF-MP2                            -0.444131192636   -115.544264390101
 SCS-DF-MP2-F12/3*C(DX,FIX)            -0.492699021172   -115.592832218637
 SCS-DF-MP2-F12/3*C(FIX)               -0.489884653148   -115.590017850613
 SCS-DF-MP2-F12/3C(FIX)                -0.489899981498   -115.590033178963

 Symmetry restored.
 Symmetry transformation completed.

 Number of N-1 electron functions:               7
 Number of N-2 electron functions:              28
 Number of singly external CSFs:               659
 Number of doubly external CSFs:            355020
 Total number of CSFs:                      355680

 Length of J-op  integral file:             103.62 MB
 Length of K-op  integral file:             127.95 MB
 Length of 3-ext integral record:             0.00 MB

 Memory could be reduced to 24.20 Mwords without degradation in triples

 Integral transformation finished. Total CPU:   1.22 sec, npass=  1  Memory used:   7.45 MW

 Reference energy:                   -115.10013320

 Adding F12 terms to K(Cij), methodcc=6,  factor= 1.0

 ITER.      SQ.NORM     CORR.ENERGY   TOTAL ENERGY   ENERGY CHANGE        DEN1      VAR(S)    VAR(P)  DIIS     TIME  TIME/IT
   1      1.11762193    -0.45286664  -115.55299984    -0.00932890     0.00167597  0.15D-02  0.19D-02  1  1    15.12     0.91
   2      1.12503353    -0.45322793  -115.55336113    -0.00036129    -0.00904894  0.24D-04  0.23D-03  2  2    15.94     0.92
   3      1.12776363    -0.45340534  -115.55353853    -0.00017741    -0.00186529  0.15D-04  0.13D-04  3  3    16.82     0.94
   4      1.12871131    -0.45342318  -115.55355638    -0.00001785    -0.00060042  0.86D-06  0.12D-05  4  4    17.68     0.94
   5      1.12886693    -0.45342474  -115.55355794    -0.00000156    -0.00003792  0.23D-06  0.10D-06  5  5    18.54     0.95
   6      1.12890953    -0.45342238  -115.55355558     0.00000236    -0.00000422  0.36D-07  0.96D-08  6  6    19.41     0.95
   7      1.12892065    -0.45342151  -115.55355471     0.00000088    -0.00000298  0.39D-08  0.14D-08  6  1    20.23     0.95
   8      1.12892245    -0.45342157  -115.55355477    -0.00000006     0.00000033  0.67D-09  0.20D-09  6  3    21.11     0.95

 Norm of t1 vector:      0.05002512      S-energy:    -0.00000037      T1 diagnostic:  0.00945386
                                                                       D1 diagnostic:  0.02005258

 Adding energy correction from Wij-K(Fij), methodcc=6  factor= 1.0

  CCSD correlation energy              -0.453421568618
  MP2-F12 correction (uncoupled)       -0.038546595335
  C*T doubles correction               -0.001165084025
  f12b correction                       0.007098932541


 Total CPU time for triples:     12.47 sec


 RESULTS
 =======

  Reference energy                   -115.098780005368
  F12 singles correction               -0.001353192096

 F12 singles corrections added to reference energy

  New reference energy               -115.100133197465

  F12a singlet correction              -0.035792597711
  F12a triplet correction              -0.003919081648
  F12a total correction                -0.039711679359

 F12a corrections for ansatz F12/3C(FIX) added to CCSD energy

  CCSD-F12a singlet pair energy        -0.351218265431
  CCSD-F12a triplet pair energy        -0.141914615137
  CCSD-F12a correlation energy         -0.493133247977

  Triples (T) contribution             -0.016015498179
  Total correlation energy             -0.509148746156

  CCSD-F12a total energy             -115.593266445442
  CCSD[T]-F12a energy                -115.609835399605
  CCSD-T-F12a energy                 -115.609038068404
 !CCSD(T)-F12a total energy          -115.609281943620

 F12b corrections for ansatz F12/3C(FIX) added to CCSD(T)-F12a energy

  CCSD-F12b singlet pair energy        -0.344581439984
  CCSD-F12b triplet pair energy        -0.141452508043
  CCSD-F12b correlation energy         -0.486034315436

  Triples (T) contribution             -0.016015498179
  Total correlation energy             -0.502049813615

  CCSD-F12b total energy             -115.586167512901
  CCSD[T]-F12b energy                -115.602736467064
  CCSD-T-F12b energy                 -115.601939135863
 !CCSD(T)-F12b total energy          -115.602183011080

 Timing summary (sec):

 STEP                 CPU(USER)    SYS     CPU(TOT)    WALL
 Transformation          1.24      0.15      1.39      1.40
 CCSD iterations         6.85      0.77      7.62      7.69
 Triples                12.47      0.47     12.94     12.99
 MP2-F12                13.02      0.55     13.57     16.50
 F12b energy             0.69      0.06      0.75      0.75

 Program statistics:

 Available memory in ccsd:               499999650
 Min. memory needed in ccsd:               1149135
 Max. memory used in ccsd:                 1443104
 Max. memory used in cckext:               1888566 ( 9 integral passes)



 **********************************************************************************************************************************
 DATASETS  * FILE   NREC   LENGTH (MB)   RECORD NAMES
              1      20      386.22       500      610      700      900      950      970     1000      129      960     1100   
                                          VAR    BASINP    GEOM    SYMINP    ZMAT    AOBASIS   BASIS     P2S    ABASIS      S 
                                         1400     1410     1200     1210     1080     1600     1650     1300     1700     1380   
                                           T        V       H0       H01     AOSYM     SMH    MOLCAS    ERIS     OPER     JKOP   

              2       7        3.55       700     1000      520     2100     7360     7350     7000   
                                         GEOM     BASIS   MCVARS     RHF    F12ABS    EF12   

 PROGRAMS   *        TOTAL   CCSD(T)   MP2-F12    HF-SCF       INT
 CPU TIMES  *        57.65     34.30     13.74      3.02      6.32
 REAL TIME  *       107.63 SEC
 DISK USED  *         1.13 GB
 **********************************************************************************************************************************
 SETTING XXX            =    "MMM"
 SETTING POINT          =        77.00000000                                  

 *** ### CH3OH


 XXX       RCO          ROH          RCH1         RCH2         RCH3           ACOH           AOCH1          AOCH2          AOCH3         AHH1           AHH2           AHH3            ENERGY       POINT
 "MMM"   1.42077677   0.96013932   1.09171752   1.08440070   1.09171752   108.12930637   111.65221523   106.68733878   111.65221523   61.43364279   180.00000000   298.56635721   -115.60928194   77.0000
                                                  

 CCSD(T)-F12/cc-pVTZ-F12 energy=   -115.602183011080

     CCSD(T)-F12         MP2-F12          HF-SCF
   -115.60218301   -115.58376810   -115.09878001
 **********************************************************************************************************************************
 Molpro calculation terminated
