
 Primary working directories    : /tmpdir/job/2955588.undefined/molpro.9sADiF17ln
 Secondary working directories  : /tmpdir/job/2955588.undefined/molpro.9sADiF17ln
 Wavefunction directory         : /home/zcaposm/wfu/
 Main file repository           : /tmpdir/job/2955588.undefined/molpro.9sADiF17ln/

 id        : uclcc

 Nodes                         nprocs
 node-d00a-229.myriad.ucl.ac.uk    1

 Using customized tuning parameters: mindgm=1; mindgv=20; mindgc=4; mindgr=1; noblas=0; minvec=7
 default implementation of scratch files=df  


 Variables initialized (945), CPU time= 0.00 sec
 ***,Methanol Ground State Energy with CCSD(T)-F12 and cc-pVTZ-F12
 memory,500,m;
 
 geometry={angstrom
 c
 o , 1, rco
 h , 2, roh, 1, acoh
 h1, 1, rch1, 2, aoch1  3  ahh1
 h2, 1, rch2, 2, aoch2, 3, ahh2
 h3, 1, rch3, 2, aoch3, 3, ahh3
 }
 
                                                ! Specify the initial values of the internal coordinates (in Angstroms and degrees)
 
 rco= 1.42077677
 roh= 0.99013932
 rch1= 1.091717515605
 rch2= 1.08440070258
 rch3= 1.091717515605
 acoh= 108.12930637
 aoch1= 111.6522152299
 aoch2= 107.18733878260001
 aoch3= 111.6522152299
 ahh1=61.43364279
 ahh2=180.0
 ahh3=298.56635721
 
                                                                                 ! Use the cc-pVTZ-F12 basis set
 basis=cc-pVTZ-F12
 
 hf
 
                                                                                 ! Use explicitly correlated F12 methods
                                                                            ! First, MP2-F12 (useful for initial electronic energy)
 {mp2-f12}
 
                                                                        ! If desired, perform CCSD(T)-F12 for more accurate results
 {ccsd(t)-f12}
 
                                                                                 ! Output the energy
 xxx = "mmm"
 point = 24
 text ### CH3OH
 table,xxx,rco,roh,rch1,rch2,rch3,acoh,aoch1,aoch2,aoch3,ahh1,ahh2,ahh3,energy,point
 DIGITS, 0, 8, 8, 8, 8, 8, 8, 8, 8, 8,  8,  8,  8, 8, 4
 save,CH3OH_MEP_MP2_24.dat,new
 
 Commands  initialized (802), CPU time= 0.01 sec, 659 directives.
 Default parameters read. Elapsed time= 0.10 sec

 Checking input...
 Passed
1


                                         ***  PROGRAM SYSTEM MOLPRO  ***
                                       Copyright, TTI GmbH Stuttgart, 2015
                                    Version 2020.1 linked Oct  6 2020 12:04:11


 **********************************************************************************************************************************
 LABEL *   Methanol Ground State Energy with CCSD(T)-F12 and cc-pVTZ-F12                 
  64 bit serial version                                                                  DATE: 08-Oct-24          TIME: 17:11:44  
 **********************************************************************************************************************************

 SHA1:             8c27446f6450a7499e38f603e13c65f775101d37
 **********************************************************************************************************************************

 Memory per process:       500 MW
 Total memory per node:    500 MW

 GA preallocation disabled
 GA check disabled

 Variable memory set to 500.0 MW

 SETTING RCO            =         1.42077677                                  
 SETTING ROH            =         0.99013932                                  
 SETTING RCH1           =         1.09171752                                  
 SETTING RCH2           =         1.08440070                                  
 SETTING RCH3           =         1.09171752                                  
 SETTING ACOH           =       108.12930637                                  
 SETTING AOCH1          =       111.65221523                                  
 SETTING AOCH2          =       107.18733878                                  
 SETTING AOCH3          =       111.65221523                                  
 SETTING AHH1           =        61.43364279                                  
 SETTING AHH2           =       180.00000000                                  
 SETTING AHH3           =       298.56635721                                  
 SETTING BASIS          =    CC-PVTZ-F12


 Recomputing integrals since basis changed


 Using spherical harmonics

 Library entry C      S cc-pVTZ-F12          selected for orbital group  1
 Library entry C      P cc-pVTZ-F12          selected for orbital group  1
 Library entry C      D cc-pVTZ-F12          selected for orbital group  1
 Library entry C      F cc-pVTZ-F12          selected for orbital group  1
 Library entry O      S cc-pVTZ-F12          selected for orbital group  2
 Library entry O      P cc-pVTZ-F12          selected for orbital group  2
 Library entry O      D cc-pVTZ-F12          selected for orbital group  2
 Library entry O      F cc-pVTZ-F12          selected for orbital group  2
 Library entry H      S cc-pVTZ-F12          selected for orbital group  3
 Library entry H      P cc-pVTZ-F12          selected for orbital group  3
 Library entry H      D cc-pVTZ-F12          selected for orbital group  3


 PROGRAM * SEWARD (Integral evaluation for generally contracted gaussian basis sets)     Author: Roland Lindh, 1990

 Geometry written to block  1 of record 700

 Orientation using atomic masses  
 Molecule type: Asymmetric top
 Symmetry elements: X
 Rotational constants:      23.8788048     24.7801954    127.2428273 GHz  (calculated with average atomic masses)

 Point group  Cs  



 ATOMIC COORDINATES

 NR  ATOM    CHARGE       X              Y              Z

   1  C       6.00    0.000000000    0.026765647   -1.377179768
   2  O       8.00    0.000000000   -0.126780914    1.303304999
   3  H       1.00    0.000000000    1.615217284    1.986260395
   4  H1      1.00    1.684053272    0.985691193   -2.084703444
   5  H3      1.00   -1.684053272    0.985691193   -2.084703444
   6  H2      1.00    0.000000000   -1.893109608   -2.093687265

 Bond lengths in Bohr (Angstrom)

 1-2  2.684878979  1-4  2.063047110  1-5  2.063047110  1-6  2.049220337  2-3  1.871092140
     ( 1.420776770)     ( 1.091717516)     ( 1.091717516)     ( 1.084400703)     ( 0.990139320)

 Bond angles

  1-2-3  108.12930637   2-1-4  111.65221523   2-1-5  111.65221523   2-1-6  107.18733878

  4-1-5  109.43105099   4-1-6  108.39459424   5-1-6  108.39459424

 NUCLEAR CHARGE:                   18
 NUMBER OF PRIMITIVE AOS:         228
 NUMBER OF SYMMETRY AOS:          206
 NUMBER OF CONTRACTIONS:          178   (  114A'  +   64A"  )
 NUMBER OF INNER CORE ORBITALS:     0   (    0A'  +    0A"  )
 NUMBER OF OUTER CORE ORBITALS:     2   (    2A'  +    0A"  )
 NUMBER OF VALENCE ORBITALS:       12   (    9A'  +    3A"  )


 NUCLEAR REPULSION ENERGY   40.18954318

 Eigenvalues of metric

         1 0.882E-04 0.201E-03 0.311E-03 0.462E-03 0.497E-03 0.560E-03 0.617E-03 0.624E-03
         2 0.323E-03 0.570E-03 0.688E-03 0.178E-02 0.340E-02 0.506E-02 0.646E-02 0.976E-02


 Contracted 2-electron integrals neglected if value below      1.0D-11
 AO integral compression algorithm  1   Integral accuracy      1.0D-11

     331.612 MB (compressed) written to integral file ( 53.5%)


 NUMBER OF SORTED TWO-ELECTRON INTEGRALS:   64554730.     BUFFER LENGTH:  32768
 NUMBER OF SEGMENTS:   5  SEGMENT LENGTH:   15997996      RECORD LENGTH: 524288

 Memory used in sort:      16.56 MW

 SORT1 READ    77497885. AND WROTE    63549860. INTEGRALS IN    184 RECORDS. CPU TIME:     1.87 SEC, REAL TIME:    65.64 SEC
 SORT2 READ    63549860. AND WROTE    64554730. INTEGRALS IN   1265 RECORDS. CPU TIME:     1.32 SEC, REAL TIME:   141.13 SEC

 FILE SIZES:   FILE 1:   362.5 MBYTE,  FILE 4:   771.8 MBYTE,   TOTAL:   1134.3 MBYTE

 OPERATOR DM      FOR CENTER  0  COORDINATES:    0.000000    0.000000    0.000000


 **********************************************************************************************************************************
 DATASETS  * FILE   NREC   LENGTH (MB)   RECORD NAMES
              1      19      311.76       500      610      700      900      950      970     1000      129      960     1100   
                                          VAR    BASINP    GEOM    SYMINP    ZMAT    AOBASIS   BASIS     P2S    ABASIS      S 
                                         1400     1410     1200     1210     1080     1600     1650     1300     1700   
                                           T        V       H0       H01     AOSYM     SMH    MOLCAS    ERIS     OPER   

 PROGRAMS   *        TOTAL       INT
 CPU TIMES  *         6.84      6.73
 REAL TIME  *       267.74 SEC
 DISK USED  *         1.13 GB
 **********************************************************************************************************************************


 PROGRAM * RHF-SCF (CLOSED SHELL)       Authors: W. Meyer, H.-J. Werner


 NUMBER OF ELECTRONS:       9+    9-
 CONVERGENCE THRESHOLDS:    1.00E-05 (Density)    1.00E-07 (Energy)
 MAX. NUMBER OF ITERATIONS:       60
 INTERPOLATION TYPE:            DIIS
 INTERPOLATION STEPS:              2 (START)      1 (STEP)
 LEVEL SHIFTS:                  0.00 (CLOSED)  0.00 (OPEN) 



 Orbital guess generated from atomic densities. Full valence occupancy:   11   3

 Molecular orbital dump at record        2100.2

 Initial occupancy:   7   2

 ITERATION    DDIFF          GRAD             ENERGY        2-EL.EN.            DIPOLE MOMENTS         DIIS   ORB.
    1      0.000D+00      0.000D+00      -115.05976236    164.271137    0.00000    0.93851   -0.45262    0    start
    2      0.000D+00      0.667D-02      -115.08832613    161.622034    0.00000    0.50376   -0.29276    1    diag
    3      0.648D-02      0.371D-02      -115.09606026    162.925860    0.00000    0.61317   -0.38630    2    diag
    4      0.224D-02      0.731D-03      -115.09661628    162.743401    0.00000    0.60599   -0.38358    3    diag
    5      0.600D-03      0.152D-03      -115.09665462    162.755151    0.00000    0.60129   -0.38930    4    diag
    6      0.173D-03      0.295D-04      -115.09665653    162.752976    0.00000    0.60125   -0.39033    5    diag
    7      0.508D-04      0.680D-05      -115.09665664    162.752456    0.00000    0.60100   -0.39070    6    diag
    8      0.135D-04      0.187D-05      -115.09665665    162.752915    0.00000    0.60097   -0.39074    7    diag
    9      0.279D-05      0.569D-06      -115.09665665    162.752717    0.00000    0.60095   -0.39075    0    orth

 Final occupancy:   7   2

 !RHF STATE  1.1 Energy              -115.096656647855
 Nuclear energy                        40.18954318
 One-electron energy                 -236.66255820
 Two-electron energy                   81.37635837
 Virial quotient                       -1.00147520
 !RHF STATE  1.1 Dipole moment          0.00000000     0.60095428    -0.39074744
 Dipole moment /Debye                   0.00000000     1.52737339    -0.99311589

 Orbital energies:

         1.1          2.1          3.1          4.1          5.1          6.1          7.1          8.1          9.1
    -20.559064   -11.269432    -1.350318    -0.923503    -0.684781    -0.593302    -0.502213     0.054421     0.064847

         1.2          2.2          3.2          4.2
     -0.620987    -0.451322     0.073870     0.181526


 HOMO      2.2    -0.451322 =     -12.2811eV
 LUMO      8.1     0.054421 =       1.4809eV
 LUMO-HOMO         0.505744 =      13.7620eV


 **********************************************************************************************************************************
 DATASETS  * FILE   NREC   LENGTH (MB)   RECORD NAMES
              1      19      311.76       500      610      700      900      950      970     1000      129      960     1100   
                                          VAR    BASINP    GEOM    SYMINP    ZMAT    AOBASIS   BASIS     P2S    ABASIS      S 
                                         1400     1410     1200     1210     1080     1600     1650     1300     1700   
                                           T        V       H0       H01     AOSYM     SMH    MOLCAS    ERIS     OPER   

              2       4        3.18       700     1000      520     2100   
                                         GEOM     BASIS   MCVARS     RHF  

 PROGRAMS   *        TOTAL    HF-SCF       INT
 CPU TIMES  *        10.00      3.16      6.73
 REAL TIME  *       289.39 SEC
 DISK USED  *         1.13 GB
 **********************************************************************************************************************************


 PROGRAM * MP2 (Closed-shell)     Authors: C. Hampel, H.-J. Werner, 1991, M. Deegan, P.J. Knowles, 1992

                                   MP2-F12 implementation by H.-J. Werner, 2007

                   Density fitting integral evaluation by F.R. Manby, 2003,2007, G. Knizia, 2010


 Basis set AUG-CC-PVTZ/JKFIT generated.  Number of basis functions:   392 
 Basis set CC-PVTZ-F12/OPTRI generated.  Number of basis functions:   314 
 Basis set AUG-CC-PVTZ/MP2FIT generated. Number of basis functions:   396 

 Convergence thresholds:  THRVAR = 1.00D-08  THRDEN = 1.00D-06

 Number of core orbitals:           2 (   2   0 )
 Number of closed-shell orbitals:   7 (   5   2 )
 Number of external orbitals:     169 ( 107  62 )

 Molecular orbitals read from record     2100.2  Type=RHF/CANONICAL (state 1.1)

 MP2-F12 correlation treatment (H.-J. Werner, 2006)
 ==================================================

 Using MP2-F12 with ansatz 3C(FIX)

 Using projected zeroth-order Hamiltonian (+Z)

 FOCKRIB=T FOCKRIC=T FOCKRIP=T CABSP=T CABSA=T CABSK=T CABSF=T GBC=F EBC=F DMAT=T NOFIK=T NOPAO=1 SOLVE=-1  USEPAO=0
 EXCH_A= T EXCH_B= F EXCH_C= F EXCH_P= F

 Geminal basis:    OPTFULL  GEM_TYPE=SLATER  BETA=1.0  NGEM=6

 Optimizing Gaussian exponents for each gem_beta

 Geminal optimization for beta= 1.0000
 Weight function:   m=0, omega= 1.4646

 Augmented Hessian optimization of geminal fit. Trust ratio= 0.40000
 Convergence reached after   2 iterations. Final gradient= 8.66D-16, Step= 4.23D-06, Delta= 1.28D-09

 Alpha:                 0.19532     0.81920     2.85917     9.50073    35.69989   197.79328
 Coeff:                 0.27070     0.30552     0.18297     0.10986     0.06810     0.04224


 Symmetry turned off. Reference energy:       -115.096656647855

 All pairs explicitly correlated. Number of r12-pairs:           28

 Excluding core orbitals from MO domains

 AO(A)-basis ORBITAL           loaded. Number of functions:     178
 RI(R)-basis CC-PVTZ-F12/OPTRI loaded. Number of functions:     314
 DF-basis AUG-CC-PVTZ/JKFIT    loaded. Number of functions:     392

 Screening thresholds:   THRAO=  1.00D-10  THRMO=  1.00D-09  THRPROD=  1.00D-09
                         THRSW=  1.00D-05  THROV=  1.00D-12  THRAOF12= 1.00D-08

 CPU time for Fock operators                      5.51 sec

 Construction of ABS:
 Smallest eigenvalue of S          4.46E-04  (threshold= 1.00E-08)
 Ratio eigmin/eigmax               5.71E-05  (threshold= 1.00E-09)
 Smallest eigenvalue of S kept     4.46E-04  (threshold= 4.46E-04, 0 functions deleted, 314 kept)

 Construction of CABS:
 Smallest eigenvalue of S          7.36E-07  (threshold= 1.00E-08)
 Ratio eigmin/eigmax               7.36E-07  (threshold= 1.00E-09)
 Smallest eigenvalue of S kept     7.36E-07  (threshold= 7.36E-07, 0 functions deleted, 314 kept)

 CPU time for CABS singles                        0.04 sec

 CABS-singles contribution of  -0.00132672 patched into reference energy.
 New reference energy        -115.09798337

 AO(A)-basis ORBITAL           loaded. Number of functions:     178
 RI(R)-basis CC-PVTZ-F12/OPTRI loaded. Number of functions:     314
 DF-basis AUG-CC-PVTZ/MP2FIT   loaded. Number of functions:     396

 Screening thresholds:   THRAO=  1.00D-10  THRMO=  1.00D-09  THRPROD=  1.00D-09
                         THRSW=  1.00D-05  THROV=  1.00D-12  THRAOF12= 1.00D-08

 CPU time for 3-index integral evaluation         3.29 sec
 CPU time for first  half transformation          0.24 sec (10287.7 MFLOP/sec)
 CPU time for second half transformation          0.01 sec ( 6217.0 MFLOP/sec)
 CPU time for sorting                             0.01 sec
 CPU time for fitting                             0.03 sec (37980.8 MFLOP/sec)
 CPU time for tilde quantities                    0.04 sec (37761.3 MFLOP/sec)
 CPU time for assembly                            0.18 sec (68631.1 MFLOP/sec)
 CPU time for tranop_f12                          0.26 sec (61000.9 MFLOP/sec)
 CPU time for f12 integrals (total)               7.07 sec, Elapsed time:      7.52 sec
 CPU time for f12 matrices (total)                0.11 sec, Elapsed time:      0.14 sec

 Diagonal F12 approximation with fixed coefficients:  TSING= 0.500,  TTRIP= 0.250 (scaled by -1/beta)

 DF-MP2-F12 energy corrections:
 ==============================
 Approx.                                    Singlet             Triplet             Total
 DF-MP2-F12/3*C(DX,FIX)                -0.038208298617     -0.004198861749     -0.042407160366
 DF-MP2-F12/3*C(FIX)                   -0.036032015325     -0.003921838731     -0.039953854056
 DF-MP2-F12/3C(FIX)                    -0.035975470069     -0.004056880560     -0.040032350629

 DF-MP2-F12 correlation energies:
 ================================
 Approx.                                    Singlet             Triplet             Ecorr            Total Energy
 DF-MP2                                -0.291936173056     -0.152835207074     -0.444771380130   -115.542754752881
 DF-MP2-F12/3*C(DX,FIX)                -0.330144471673     -0.157034068822     -0.487178540495   -115.585161913246
 DF-MP2-F12/3*C(FIX)                   -0.327968188381     -0.156757045804     -0.484725234185   -115.582708606936
 DF-MP2-F12/3C(FIX)                    -0.327911643125     -0.156892087633     -0.484803730758   -115.582787103509

 SCS-DF-MP2 energies (F_SING= 1.20000  F_TRIP= 0.62222  F_PARALLEL= 0.33333):
 ============================================================================
 SCS-DF-MP2                            -0.445420869846   -115.543404242597
 SCS-DF-MP2-F12/3*C(DX,FIX)            -0.493883453275   -115.591866826026
 SCS-DF-MP2-F12/3*C(FIX)               -0.491099543446   -115.589082916197
 SCS-DF-MP2-F12/3C(FIX)                -0.491115715166   -115.589099087917

 Symmetry restored.
 Symmetry transformation completed.

 Number of N-1 electron functions:               7
 Number of N-2 electron functions:              28
 Number of singly external CSFs:               659
 Number of doubly external CSFs:            355020
 Total number of CSFs:                      355680

 Length of J-op  integral file:             103.49 MB
 Length of K-op  integral file:             127.95 MB

 Integral transformation finished. Total CPU:   0.46 sec, npass=  1  Memory used:   0.67 MW

 ITER.      SQ.NORM     CORR.ENERGY   TOTAL ENERGY   ENERGY CHANGE     VAR   MIC
   1      1.00000000    -0.44483807  -115.54282144    -0.44483807  0.00D+00   0
   2      1.11588740    -0.44483807  -115.54282144    -0.00000000  0.73D-16   0

 Solving MP2-F12 equations

   1      1.11585048    -0.48411348  -115.58209686    -0.03927541 -0.38D-04   0
   2      1.11585048    -0.48486895  -115.58285232    -0.00075546 -0.35D-18   0
   3      1.11585048    -0.48486895  -115.58285232    -0.00000000  0.82D-19   0

 CPU TIME FOR ITERATIVE MP2:    0.04 SEC


 MP2-F12 energy corrections:
 ===========================
 Approx.                                    Singlet             Triplet             Total
 MP2-F12/3*C(DX,FIX)                   -0.038208298617     -0.004198861749     -0.042407160366
 MP2-F12/3*C(FIX)                      -0.036032015325     -0.003921838731     -0.039953854056
 MP2-F12/3C(FIX)                       -0.035972761714     -0.004058112824     -0.040030874537

 MP2-F12 correlation energies:
 =============================
 Approx.                                    Singlet             Triplet             Ecorr            Total Energy
 MP2                                   -0.292119564890     -0.152718507257     -0.444838072146   -115.542821444897
 MP2-F12/3*C(DX,FIX)                   -0.330327863507     -0.156917369005     -0.487245232512   -115.585228605263
 MP2-F12/3*C(FIX)                      -0.328151580214     -0.156640345988     -0.484791926202   -115.582775298953
 MP2-F12/3C(FIX)                       -0.328092326603     -0.156776620080     -0.484868946684   -115.582852319435

 SCS-MP2 energies (F_SING= 1.20000  F_TRIP= 0.62222  F_PARALLEL= 0.33333):
 =========================================================================
 SCS-MP2                               -0.445568326827   -115.543551699578
 SCS-MP2-F12/3*C(DX,FIX)               -0.494030910256   -115.592014283007
 SCS-MP2-F12/3*C(FIX)                  -0.491247000427   -115.589230373178
 SCS-MP2-F12/3C(FIX)                   -0.491260688863   -115.589244061614


  Reference energy                   -115.096656647855
  F12 singles correction               -0.001326724896

 F12 singles corrections added to reference energy

  New reference energy               -115.097983372751

  F12/3C(F) singlet correction         -0.035972761714
  F12/3C(F) triplet correction         -0.004058112824
  F12/3C(F) total correction           -0.040030874537
  MP2-F12/3C(F) singlet pair energy    -0.328092326603
  MP2-F12/3C(F) triplet pair energy    -0.156776620080
  MP2-F12/3C(F) correlation energy     -0.484868946684

 !MP2-F12/3C(F) total energy         -115.582852319435


 **********************************************************************************************************************************
 DATASETS  * FILE   NREC   LENGTH (MB)   RECORD NAMES
              1      20      317.50       500      610      700      900      950      970     1000      129      960     1100   
                                          VAR    BASINP    GEOM    SYMINP    ZMAT    AOBASIS   BASIS     P2S    ABASIS      S 
                                         1400     1410     1200     1210     1080     1600     1650     1300     1700     1380   
                                           T        V       H0       H01     AOSYM     SMH    MOLCAS    ERIS     OPER     JKOP   

              2       7        3.55       700     1000      520     2100     7360     7350     7000   
                                         GEOM     BASIS   MCVARS     RHF    F12ABS    EF12   

 PROGRAMS   *        TOTAL   MP2-F12    HF-SCF       INT
 CPU TIMES  *        23.41     13.40      3.16      6.73
 REAL TIME  *       304.55 SEC
 DISK USED  *         1.13 GB
 **********************************************************************************************************************************


 PROGRAM * CCSD (Closed-shell coupled cluster)     Authors: C. Hampel, H.-J. Werner, 1991, M. Deegan, P.J. Knowles, 1992

                                  CCSD-F12 implementation by  H.-J. Werner, 2007

                   Density fitting integral evaluation by F.R. Manby, 2003,2007, G. Knizia, 2010



 Convergence thresholds:  THRVAR = 1.00D-08  THRDEN = 1.00D-06

 CCSD(T)     terms to be evaluated (factor= 1.000)


 Number of core orbitals:           2 (   2   0 )
 Number of closed-shell orbitals:   7 (   5   2 )
 Number of external orbitals:     169 ( 107  62 )

 Molecular orbitals read from record     2100.2  Type=RHF/CANONICAL (state 1.1)

 MP2-F12 correlation treatment (H.-J. Werner, 2006)
 ==================================================

 Using MP2-F12 with ansatz 3C(FIX)

 Using projected zeroth-order Hamiltonian (+Z)

 FOCKRIB=T FOCKRIC=T FOCKRIP=T CABSP=T CABSA=T CABSK=T CABSF=T GBC=F EBC=F DMAT=T NOFIK=T NOPAO=1 SOLVE=-1  USEPAO=0
 EXCH_A= T EXCH_B= F EXCH_C= F EXCH_P= F

 Geminal basis:    OPTFULL  GEM_TYPE=SLATER  BETA=1.0  NGEM=6

 Optimizing Gaussian exponents for each gem_beta

 Geminal optimization for beta= 1.0000
 Weight function:   m=0, omega= 1.4646

 Augmented Hessian optimization of geminal fit. Trust ratio= 0.40000
 Convergence reached after   2 iterations. Final gradient= 8.66D-16, Step= 4.23D-06, Delta= 1.28D-09

 Alpha:                 0.19532     0.81920     2.85917     9.50073    35.69989   197.79328
 Coeff:                 0.27070     0.30552     0.18297     0.10986     0.06810     0.04224


 Symmetry turned off. Reference energy:       -115.096656647855

 All pairs explicitly correlated. Number of r12-pairs:           28

 Excluding core orbitals from MO domains

 AO(A)-basis ORBITAL           loaded. Number of functions:     178
 RI(R)-basis CC-PVTZ-F12/OPTRI loaded. Number of functions:     314
 DF-basis AUG-CC-PVTZ/JKFIT    loaded. Number of functions:     392

 Screening thresholds:   THRAO=  1.00D-10  THRMO=  1.00D-09  THRPROD=  1.00D-09
                         THRSW=  1.00D-05  THROV=  1.00D-12  THRAOF12= 1.00D-08

 CPU time for Fock operators                      5.40 sec

 Construction of ABS:
 Smallest eigenvalue of S          4.46E-04  (threshold= 1.00E-08)
 Ratio eigmin/eigmax               5.71E-05  (threshold= 1.00E-09)
 Smallest eigenvalue of S kept     4.46E-04  (threshold= 4.46E-04, 0 functions deleted, 314 kept)

 Construction of CABS:
 Smallest eigenvalue of S          7.36E-07  (threshold= 1.00E-08)
 Ratio eigmin/eigmax               7.36E-07  (threshold= 1.00E-09)
 Smallest eigenvalue of S kept     7.36E-07  (threshold= 7.36E-07, 0 functions deleted, 314 kept)

 CPU time for CABS singles                        0.04 sec

 CABS-singles contribution of  -0.00132672 patched into reference energy.
 New reference energy        -115.09798337

 AO(A)-basis ORBITAL           loaded. Number of functions:     178
 RI(R)-basis CC-PVTZ-F12/OPTRI loaded. Number of functions:     314
 DF-basis AUG-CC-PVTZ/MP2FIT   loaded. Number of functions:     396

 Screening thresholds:   THRAO=  1.00D-10  THRMO=  1.00D-09  THRPROD=  1.00D-09
                         THRSW=  1.00D-05  THROV=  1.00D-12  THRAOF12= 1.00D-08

 CPU time for 3-index integral evaluation         3.38 sec
 CPU time for first  half transformation          0.31 sec ( 7964.7 MFLOP/sec)
 CPU time for fitting                             0.02 sec (56971.3 MFLOP/sec)
 CPU time for tilde quantities                    0.03 sec (50348.4 MFLOP/sec)
 CPU time for assembly                            0.22 sec (56152.7 MFLOP/sec)
 CPU time for tranop_f12                          0.27 sec (58741.6 MFLOP/sec)
 CPU time for f12 integrals (total)               7.28 sec, Elapsed time:      7.64 sec
 CPU time for f12 matrices (total)                0.12 sec, Elapsed time:      0.14 sec

 Diagonal F12 approximation with fixed coefficients:  TSING= 0.500,  TTRIP= 0.250 (scaled by -1/beta)

 DF-MP2-F12 energy corrections:
 ==============================
 Approx.                                    Singlet             Triplet             Total
 DF-MP2-F12/3*C(DX,FIX)                -0.038208298617     -0.004198861749     -0.042407160366
 DF-MP2-F12/3*C(FIX)                   -0.036032015325     -0.003921838731     -0.039953854056
 DF-MP2-F12/3C(FIX)                    -0.035975470069     -0.004056880560     -0.040032350629

 DF-MP2-F12 correlation energies:
 ================================
 Approx.                                    Singlet             Triplet             Ecorr            Total Energy
 DF-MP2                                -0.291936173056     -0.152835207074     -0.444771380130   -115.542754752881
 DF-MP2-F12/3*C(DX,FIX)                -0.330144471673     -0.157034068822     -0.487178540495   -115.585161913246
 DF-MP2-F12/3*C(FIX)                   -0.327968188381     -0.156757045804     -0.484725234185   -115.582708606936
 DF-MP2-F12/3C(FIX)                    -0.327911643125     -0.156892087633     -0.484803730758   -115.582787103509

 SCS-DF-MP2 energies (F_SING= 1.20000  F_TRIP= 0.62222  F_PARALLEL= 0.33333):
 ============================================================================
 SCS-DF-MP2                            -0.445420869846   -115.543404242597
 SCS-DF-MP2-F12/3*C(DX,FIX)            -0.493883453275   -115.591866826026
 SCS-DF-MP2-F12/3*C(FIX)               -0.491099543446   -115.589082916197
 SCS-DF-MP2-F12/3C(FIX)                -0.491115715166   -115.589099087917

 Symmetry restored.
 Symmetry transformation completed.

 Number of N-1 electron functions:               7
 Number of N-2 electron functions:              28
 Number of singly external CSFs:               659
 Number of doubly external CSFs:            355020
 Total number of CSFs:                      355680

 Length of J-op  integral file:             103.62 MB
 Length of K-op  integral file:             127.95 MB
 Length of 3-ext integral record:             0.00 MB

 Memory could be reduced to 24.20 Mwords without degradation in triples

 Integral transformation finished. Total CPU:   1.19 sec, npass=  1  Memory used:   7.45 MW

 Reference energy:                   -115.09798337

 Adding F12 terms to K(Cij), methodcc=6,  factor= 1.0

 ITER.      SQ.NORM     CORR.ENERGY   TOTAL ENERGY   ENERGY CHANGE        DEN1      VAR(S)    VAR(P)  DIIS     TIME  TIME/IT
   1      1.11859868    -0.45397998  -115.55196335    -0.00914190     0.00205304  0.15D-02  0.19D-02  1  1    14.92     0.91
   2      1.12616853    -0.45434947  -115.55233285    -0.00036950    -0.00919285  0.25D-04  0.24D-03  2  2    15.78     1.25
   3      1.12898871    -0.45453486  -115.55251823    -0.00018539    -0.00190704  0.15D-04  0.14D-04  3  3    16.59     1.14
   4      1.12997914    -0.45455444  -115.55253782    -0.00001958    -0.00062035  0.93D-06  0.12D-05  4  4    17.41     1.08
   5      1.13014372    -0.45455612  -115.55253949    -0.00000167    -0.00003980  0.26D-06  0.11D-06  5  5    18.23     1.05
   6      1.13018936    -0.45455369  -115.55253707     0.00000242    -0.00000462  0.40D-07  0.11D-07  6  6    19.06     1.03
   7      1.13020153    -0.45455278  -115.55253616     0.00000091    -0.00000315  0.44D-08  0.16D-08  6  1    19.91     1.02
   8      1.13020355    -0.45455285  -115.55253622    -0.00000007     0.00000037  0.75D-09  0.23D-09  6  3    20.74     1.01

 Norm of t1 vector:      0.05086558      S-energy:    -0.00000040      T1 diagnostic:  0.00961269
                                                                       D1 diagnostic:  0.02051672

 Adding energy correction from Wij-K(Fij), methodcc=6  factor= 1.0

  CCSD correlation energy              -0.454552851202
  MP2-F12 correction (uncoupled)       -0.038477127282
  C*T doubles correction               -0.001165117464
  f12b correction                       0.007106902988


 Total CPU time for triples:     11.84 sec


 RESULTS
 =======

  Reference energy                   -115.096656647855
  F12 singles correction               -0.001326724896

 F12 singles corrections added to reference energy

  New reference energy               -115.097983372751

  F12a singlet correction              -0.035732934843
  F12a triplet correction              -0.003909309902
  F12a total correction                -0.039642244745

 F12a corrections for ansatz F12/3C(FIX) added to CCSD energy

  CCSD-F12a singlet pair energy        -0.352144839417
  CCSD-F12a triplet pair energy        -0.142049853308
  CCSD-F12a correlation energy         -0.494195095947

  Triples (T) contribution             -0.016189911049
  Total correlation energy             -0.510385006996

  CCSD-F12a total energy             -115.592178468698
  CCSD[T]-F12a energy                -115.608934741417
  CCSD-T-F12a energy                 -115.608118501208
 !CCSD(T)-F12a total energy          -115.608368379747

 F12b corrections for ansatz F12/3C(FIX) added to CCSD(T)-F12a energy

  CCSD-F12b singlet pair energy        -0.345499396373
  CCSD-F12b triplet pair energy        -0.141588393364
  CCSD-F12b correlation energy         -0.487088192959

  Triples (T) contribution             -0.016189911049
  Total correlation energy             -0.503278104008

  CCSD-F12b total energy             -115.585071565710
  CCSD[T]-F12b energy                -115.601827838429
  CCSD-T-F12b energy                 -115.601011598220
 !CCSD(T)-F12b total energy          -115.601261476759

 Timing summary (sec):

 STEP                 CPU(USER)    SYS     CPU(TOT)    WALL
 Transformation          1.20      0.21      1.41      1.46
 CCSD iterations         6.64      0.74      7.38      8.09
 Triples                11.84      0.48     12.32     12.34
 MP2-F12                12.92      0.52     13.44     13.60
 F12b energy             0.66      0.05      0.71      0.72

 Program statistics:

 Available memory in ccsd:               499999650
 Min. memory needed in ccsd:               1149135
 Max. memory used in ccsd:                 1443104
 Max. memory used in cckext:               1888566 ( 9 integral passes)



 **********************************************************************************************************************************
 DATASETS  * FILE   NREC   LENGTH (MB)   RECORD NAMES
              1      20      386.07       500      610      700      900      950      970     1000      129      960     1100   
                                          VAR    BASINP    GEOM    SYMINP    ZMAT    AOBASIS   BASIS     P2S    ABASIS      S 
                                         1400     1410     1200     1210     1080     1600     1650     1300     1700     1380   
                                           T        V       H0       H01     AOSYM     SMH    MOLCAS    ERIS     OPER     JKOP   

              2       7        3.55       700     1000      520     2100     7360     7350     7000   
                                         GEOM     BASIS   MCVARS     RHF    F12ABS    EF12   

 PROGRAMS   *        TOTAL   CCSD(T)   MP2-F12    HF-SCF       INT
 CPU TIMES  *        56.70     33.29     13.40      3.16      6.73
 REAL TIME  *       340.84 SEC
 DISK USED  *         1.13 GB
 **********************************************************************************************************************************
 SETTING XXX            =    "MMM"
 SETTING POINT          =        24.00000000                                  

 *** ### CH3OH


 XXX       RCO          ROH          RCH1         RCH2         RCH3           ACOH           AOCH1          AOCH2          AOCH3         AHH1           AHH2           AHH3            ENERGY       POINT
 "MMM"   1.42077677   0.99013932   1.09171752   1.08440070   1.09171752   108.12930637   111.65221523   107.18733878   111.65221523   61.43364279   180.00000000   298.56635721   -115.60836838   24.0000
                                                  

 CCSD(T)-F12/cc-pVTZ-F12 energy=   -115.601261476759

     CCSD(T)-F12         MP2-F12          HF-SCF
   -115.60126148   -115.58285232   -115.09665665
 **********************************************************************************************************************************
 Molpro calculation terminated
