
 Primary working directories    : /tmpdir/job/2955671.undefined/molpro.eN754jd9WD
 Secondary working directories  : /tmpdir/job/2955671.undefined/molpro.eN754jd9WD
 Wavefunction directory         : /home/zcaposm/wfu/
 Main file repository           : /tmpdir/job/2955671.undefined/molpro.eN754jd9WD/

 id        : uclcc

 Nodes                         nprocs
 node-d00a-015.myriad.ucl.ac.uk    1

 Using customized tuning parameters: mindgm=1; mindgv=20; mindgc=4; mindgr=1; noblas=0; minvec=7
 default implementation of scratch files=df  


 Variables initialized (945), CPU time= 0.01 sec
 ***,Methanol Ground State Energy with CCSD(T)-F12 and cc-pVTZ-F12
 memory,500,m;
 
 geometry={angstrom
 c
 o , 1, rco
 h , 2, roh, 1, acoh
 h1, 1, rch1, 2, aoch1  3  ahh1
 h2, 1, rch2, 2, aoch2, 3, ahh2
 h3, 1, rch3, 2, aoch3, 3, ahh3
 }
 
                                                ! Specify the initial values of the internal coordinates (in Angstroms and degrees)
 
 rco= 1.42077677
 roh= 0.96013932
 rch1= 1.091717515605
 rch2= 1.08440070258
 rch3= 1.091717515605
 acoh= 108.12930637
 aoch1= 111.6522152299
 aoch2= 107.18733878260001
 aoch3= 111.6522152299
 ahh1=61.66934505039553
 ahh2=179.88214886980225
 ahh3=298.4485060798022
 
                                                                                 ! Use the cc-pVTZ-F12 basis set
 basis=cc-pVTZ-F12
 
 hf
 
                                                                                 ! Use explicitly correlated F12 methods
                                                                            ! First, MP2-F12 (useful for initial electronic energy)
 {mp2-f12}
 
                                                                        ! If desired, perform CCSD(T)-F12 for more accurate results
 {ccsd(t)-f12}
 
                                                                                 ! Output the energy
 xxx = "mmm"
 point = 100
 text ### CH3OH
 table,xxx,rco,roh,rch1,rch2,rch3,acoh,aoch1,aoch2,aoch3,ahh1,ahh2,ahh3,energy,point
 DIGITS, 0, 8, 8, 8, 8, 8, 8, 8, 8, 8,  8,  8,  8, 8, 4
 save,CH3OH_MEP_MP2_100.dat,new
 
 Commands  initialized (802), CPU time= 0.01 sec, 659 directives.
 Default parameters read. Elapsed time= 0.11 sec

 Checking input...
 Passed
1


                                         ***  PROGRAM SYSTEM MOLPRO  ***
                                       Copyright, TTI GmbH Stuttgart, 2015
                                    Version 2020.1 linked Oct  6 2020 12:04:11


 **********************************************************************************************************************************
 LABEL *   Methanol Ground State Energy with CCSD(T)-F12 and cc-pVTZ-F12                 
  64 bit serial version                                                                  DATE: 08-Oct-24          TIME: 17:30:41  
 **********************************************************************************************************************************

 SHA1:             8c27446f6450a7499e38f603e13c65f775101d37
 **********************************************************************************************************************************

 Memory per process:       500 MW
 Total memory per node:    500 MW

 GA preallocation disabled
 GA check disabled

 Variable memory set to 500.0 MW

 SETTING RCO            =         1.42077677                                  
 SETTING ROH            =         0.96013932                                  
 SETTING RCH1           =         1.09171752                                  
 SETTING RCH2           =         1.08440070                                  
 SETTING RCH3           =         1.09171752                                  
 SETTING ACOH           =       108.12930637                                  
 SETTING AOCH1          =       111.65221523                                  
 SETTING AOCH2          =       107.18733878                                  
 SETTING AOCH3          =       111.65221523                                  
 SETTING AHH1           =        61.66934505                                  
 SETTING AHH2           =       179.88214887                                  
 SETTING AHH3           =       298.44850608                                  
 SETTING BASIS          =    CC-PVTZ-F12


 Recomputing integrals since basis changed


 Using spherical harmonics

 Library entry C      S cc-pVTZ-F12          selected for orbital group  1
 Library entry C      P cc-pVTZ-F12          selected for orbital group  1
 Library entry C      D cc-pVTZ-F12          selected for orbital group  1
 Library entry C      F cc-pVTZ-F12          selected for orbital group  1
 Library entry O      S cc-pVTZ-F12          selected for orbital group  2
 Library entry O      P cc-pVTZ-F12          selected for orbital group  2
 Library entry O      D cc-pVTZ-F12          selected for orbital group  2
 Library entry O      F cc-pVTZ-F12          selected for orbital group  2
 Library entry H      S cc-pVTZ-F12          selected for orbital group  3
 Library entry H      P cc-pVTZ-F12          selected for orbital group  3
 Library entry H      D cc-pVTZ-F12          selected for orbital group  3


 PROGRAM * SEWARD (Integral evaluation for generally contracted gaussian basis sets)     Author: Roland Lindh, 1990

 Geometry written to block  1 of record 700

 Orientation using atomic masses  
 Molecule type: Asymmetric top
 Rotational constants:      23.9643033     24.8008245    128.7939861 GHz  (calculated with average atomic masses)

 Point group  C1  



 ATOMIC COORDINATES

 NR  ATOM    CHARGE       X              Y              Z

   1  C       6.00   -0.000351809    0.026011629   -1.376564628
   2  O       8.00   -0.000478868   -0.122194772    1.304220701
   3  H       1.00    0.007467351    1.568320561    1.963116306
   4  H1      1.00    1.691684537    0.968794483   -2.086731419
   5  H2      1.00   -0.005348433   -1.895280735   -2.089245956
   6  H3      1.00   -1.682009918    0.987843411   -2.085838205

 Bond lengths in Bohr (Angstrom)

 1-2  2.684878979  1-4  2.063047110  1-5  2.049220337  1-6  2.063047110  2-3  1.814400356
     ( 1.420776770)     ( 1.091717516)     ( 1.084400703)     ( 1.091717516)     ( 0.960139320)

 Bond angles

  1-2-3  108.12930637   2-1-4  111.65221523   2-1-5  107.18733878   2-1-6  111.65221523

  4-1-5  108.10379055   4-1-6  109.70276105   5-1-6  108.39459424

 NUCLEAR CHARGE:                   18
 NUMBER OF PRIMITIVE AOS:         228
 NUMBER OF SYMMETRY AOS:          206
 NUMBER OF CONTRACTIONS:          178   (  178A   )
 NUMBER OF INNER CORE ORBITALS:     0   (    0A   )
 NUMBER OF OUTER CORE ORBITALS:     2   (    2A   )
 NUMBER OF VALENCE ORBITALS:       12   (   12A   )


 NUCLEAR REPULSION ENERGY   40.34537751

 Eigenvalues of metric

         1 0.880E-04 0.183E-03 0.309E-03 0.322E-03 0.460E-03 0.493E-03 0.560E-03 0.570E-03


 Contracted 2-electron integrals neglected if value below      1.0D-11
 AO integral compression algorithm  1   Integral accuracy      1.0D-11

     601.096 MB (compressed) written to integral file ( 50.4%)


 NUMBER OF SORTED TWO-ELECTRON INTEGRALS:  126906346.     BUFFER LENGTH:  32768
 NUMBER OF SEGMENTS:   8  SEGMENT LENGTH:   15999503      RECORD LENGTH: 524288

 Memory used in sort:      16.56 MW

 SORT1 READ   149034713. AND WROTE   124671432. INTEGRALS IN    360 RECORDS. CPU TIME:     1.94 SEC, REAL TIME:    27.99 SEC
 SORT2 READ   124671432. AND WROTE   126906346. INTEGRALS IN   2293 RECORDS. CPU TIME:     2.04 SEC, REAL TIME:    40.36 SEC

 FILE SIZES:   FILE 1:   632.3 MBYTE,  FILE 4:  1510.0 MBYTE,   TOTAL:   2142.3 MBYTE

 OPERATOR DM      FOR CENTER  0  COORDINATES:    0.000000    0.000000    0.000000


 **********************************************************************************************************************************
 DATASETS  * FILE   NREC   LENGTH (MB)   RECORD NAMES
              1      19      555.31       500      610      700      900      950      970     1000      129      960     1100   
                                          VAR    BASINP    GEOM    SYMINP    ZMAT    AOBASIS   BASIS     P2S    ABASIS      S 
                                         1400     1410     1200     1210     1080     1600     1650     1300     1700   
                                           T        V       H0       H01     AOSYM     SMH    MOLCAS    ERIS     OPER   

 PROGRAMS   *        TOTAL       INT
 CPU TIMES  *         9.01      8.86
 REAL TIME  *        82.51 SEC
 DISK USED  *         2.14 GB
 **********************************************************************************************************************************


 PROGRAM * RHF-SCF (CLOSED SHELL)       Authors: W. Meyer, H.-J. Werner


 NUMBER OF ELECTRONS:       9+    9-    SPACE SYMMETRY=1    SPIN SYMMETRY: Singlet 
 CONVERGENCE THRESHOLDS:    1.00E-05 (Density)    1.00E-07 (Energy)
 MAX. NUMBER OF ITERATIONS:       60
 INTERPOLATION TYPE:            DIIS
 INTERPOLATION STEPS:              2 (START)      1 (STEP)
 LEVEL SHIFTS:                  0.00 (CLOSED)  0.00 (OPEN) 



 Orbital guess generated from atomic densities. Full valence occupancy:   14

 Molecular orbital dump at record        2100.2

 Initial occupancy:   9

 ITERATION    DDIFF          GRAD             ENERGY        2-EL.EN.            DIPOLE MOMENTS         DIIS   ORB.
    1      0.000D+00      0.000D+00      -115.06236960    164.484193    0.00471    0.90328   -0.47776    0    start
    2      0.000D+00      0.506D-02      -115.09071659    161.902480    0.00260    0.49604   -0.30359    1    diag
    3      0.480D-02      0.277D-02      -115.09820104    163.165356    0.00306    0.59939   -0.39676    2    diag
    4      0.163D-02      0.546D-03      -115.09873327    162.988843    0.00301    0.59431   -0.39220    3    diag
    5      0.436D-03      0.110D-03      -115.09876766    163.000315    0.00298    0.59035   -0.39702    4    diag
    6      0.121D-03      0.205D-04      -115.09876921    162.998085    0.00298    0.59050   -0.39780    5    diag
    7      0.349D-04      0.434D-05      -115.09876929    162.997708    0.00298    0.59032   -0.39808    6    diag
    8      0.877D-05      0.113D-05      -115.09876929    162.998050    0.00298    0.59031   -0.39809    0    orth

 Final occupancy:   9

 !RHF STATE  1.1 Energy              -115.098769289560
 Nuclear energy                        40.34537751
 One-electron energy                 -236.94317176
 Two-electron energy                   81.49902497
 Virial quotient                       -1.00101637
 !RHF STATE  1.1 Dipole moment          0.00298063     0.59031478    -0.39809315
 Dipole moment /Debye                   0.00757550     1.50033225    -1.01178559

 Orbital energies:

         1.1          2.1          3.1          4.1          5.1          6.1          7.1          8.1          9.1         10.1
    -20.556345   -11.269739    -1.356919    -0.926384    -0.690598    -0.621895    -0.594359    -0.503976    -0.452347     0.054689

        11.1
      0.065001


 HOMO      9.1    -0.452347 =     -12.3090eV
 LUMO     10.1     0.054689 =       1.4882eV
 LUMO-HOMO         0.507036 =      13.7971eV


 **********************************************************************************************************************************
 DATASETS  * FILE   NREC   LENGTH (MB)   RECORD NAMES
              1      19      555.31       500      610      700      900      950      970     1000      129      960     1100   
                                          VAR    BASINP    GEOM    SYMINP    ZMAT    AOBASIS   BASIS     P2S    ABASIS      S 
                                         1400     1410     1200     1210     1080     1600     1650     1300     1700   
                                           T        V       H0       H01     AOSYM     SMH    MOLCAS    ERIS     OPER   

              2       4        3.48       700     1000      520     2100   
                                         GEOM     BASIS   MCVARS     RHF  

 PROGRAMS   *        TOTAL    HF-SCF       INT
 CPU TIMES  *        17.45      8.45      8.86
 REAL TIME  *       174.98 SEC
 DISK USED  *         2.14 GB
 **********************************************************************************************************************************


 PROGRAM * MP2 (Closed-shell)     Authors: C. Hampel, H.-J. Werner, 1991, M. Deegan, P.J. Knowles, 1992

                                   MP2-F12 implementation by H.-J. Werner, 2007

                   Density fitting integral evaluation by F.R. Manby, 2003,2007, G. Knizia, 2010


 Basis set AUG-CC-PVTZ/JKFIT generated.  Number of basis functions:   392 
 Basis set CC-PVTZ-F12/OPTRI generated.  Number of basis functions:   314 
 Basis set AUG-CC-PVTZ/MP2FIT generated. Number of basis functions:   396 

 Convergence thresholds:  THRVAR = 1.00D-08  THRDEN = 1.00D-06

 Number of core orbitals:           2 (   2 )
 Number of closed-shell orbitals:   7 (   7 )
 Number of external orbitals:     169 ( 169 )

 Molecular orbitals read from record     2100.2  Type=RHF/CANONICAL (state 1.1)

 MP2-F12 correlation treatment (H.-J. Werner, 2006)
 ==================================================

 Using MP2-F12 with ansatz 3C(FIX)

 Using projected zeroth-order Hamiltonian (+Z)

 FOCKRIB=T FOCKRIC=T FOCKRIP=T CABSP=T CABSA=T CABSK=T CABSF=T GBC=F EBC=F DMAT=T NOFIK=T NOPAO=1 SOLVE=-1  USEPAO=0
 EXCH_A= T EXCH_B= F EXCH_C= F EXCH_P= F

 Geminal basis:    OPTFULL  GEM_TYPE=SLATER  BETA=1.0  NGEM=6

 Optimizing Gaussian exponents for each gem_beta

 Geminal optimization for beta= 1.0000
 Weight function:   m=0, omega= 1.4646

 Augmented Hessian optimization of geminal fit. Trust ratio= 0.40000
 Convergence reached after   2 iterations. Final gradient= 8.66D-16, Step= 4.23D-06, Delta= 1.28D-09

 Alpha:                 0.19532     0.81920     2.85917     9.50073    35.69989   197.79328
 Coeff:                 0.27070     0.30552     0.18297     0.10986     0.06810     0.04224


 All pairs explicitly correlated. Number of r12-pairs:           28

 Excluding core orbitals from MO domains

 AO(A)-basis ORBITAL           loaded. Number of functions:     178
 RI(R)-basis CC-PVTZ-F12/OPTRI loaded. Number of functions:     314
 DF-basis AUG-CC-PVTZ/JKFIT    loaded. Number of functions:     392

 Screening thresholds:   THRAO=  1.00D-10  THRMO=  1.00D-09  THRPROD=  1.00D-09
                         THRSW=  1.00D-05  THROV=  1.00D-12  THRAOF12= 1.00D-08

 CPU time for Fock operators                      1.76 sec

 Construction of ABS:
 Smallest eigenvalue of S          4.37E-04  (threshold= 1.00E-08)
 Ratio eigmin/eigmax               5.58E-05  (threshold= 1.00E-09)
 Smallest eigenvalue of S kept     4.37E-04  (threshold= 4.37E-04, 0 functions deleted, 314 kept)

 Construction of CABS:
 Smallest eigenvalue of S          7.26E-07  (threshold= 1.00E-08)
 Ratio eigmin/eigmax               7.26E-07  (threshold= 1.00E-09)
 Smallest eigenvalue of S kept     7.26E-07  (threshold= 7.26E-07, 0 functions deleted, 314 kept)

 CPU time for CABS singles                        0.05 sec

 CABS-singles contribution of  -0.00135362 patched into reference energy.
 New reference energy        -115.10012291

 AO(A)-basis ORBITAL           loaded. Number of functions:     178
 RI(R)-basis CC-PVTZ-F12/OPTRI loaded. Number of functions:     314
 DF-basis AUG-CC-PVTZ/MP2FIT   loaded. Number of functions:     396

 Screening thresholds:   THRAO=  1.00D-10  THRMO=  1.00D-09  THRPROD=  1.00D-09
                         THRSW=  1.00D-05  THROV=  1.00D-12  THRAOF12= 1.00D-08

 CPU time for 3-index integral evaluation         4.26 sec
 CPU time for first  half transformation          0.34 sec ( 7261.9 MFLOP/sec)
 CPU time for sorting                             0.03 sec
 CPU time for fitting                             0.02 sec (56971.3 MFLOP/sec)
 CPU time for tilde quantities                    0.03 sec (50348.4 MFLOP/sec)
 CPU time for assembly                            0.22 sec (56152.7 MFLOP/sec)
 CPU time for tranop_f12                          0.26 sec (61000.9 MFLOP/sec)
 CPU time for f12 integrals (total)               5.64 sec, Elapsed time:      8.36 sec
 CPU time for f12 matrices (total)                0.12 sec, Elapsed time:      0.18 sec

 Diagonal F12 approximation with fixed coefficients:  TSING= 0.500,  TTRIP= 0.250 (scaled by -1/beta)

 DF-MP2-F12 energy corrections:
 ==============================
 Approx.                                    Singlet             Triplet             Total
 DF-MP2-F12/3*C(DX,FIX)                -0.038287490164     -0.004212666370     -0.042500156533
 DF-MP2-F12/3*C(FIX)                   -0.036088709920     -0.003930923841     -0.040019633761
 DF-MP2-F12/3C(FIX)                    -0.036031390050     -0.004065895969     -0.040097286019

 DF-MP2-F12 correlation energies:
 ================================
 Approx.                                    Singlet             Triplet             Ecorr            Total Energy
 DF-MP2                                -0.291096500820     -0.152366347510     -0.443462848330   -115.543585753714
 DF-MP2-F12/3*C(DX,FIX)                -0.329383990984     -0.156579013879     -0.485963004863   -115.586085910248
 DF-MP2-F12/3*C(FIX)                   -0.327185210740     -0.156297271350     -0.483482482091   -115.583605387475
 DF-MP2-F12/3C(FIX)                    -0.327127890870     -0.156432243479     -0.483560134349   -115.583683039733

 SCS-DF-MP2 energies (F_SING= 1.20000  F_TRIP= 0.62222  F_PARALLEL= 0.33333):
 ============================================================================
 SCS-DF-MP2                            -0.444121528323   -115.544244433708
 SCS-DF-MP2-F12/3*C(DX,FIX)            -0.492687731150   -115.592810636535
 SCS-DF-MP2-F12/3*C(FIX)               -0.489873888395   -115.589996793780
 SCS-DF-MP2-F12/3C(FIX)                -0.489889087208   -115.590011992593
 Symmetry transformation completed.

 Number of N-1 electron functions:               7
 Number of N-2 electron functions:              28
 Number of singly external CSFs:              1183
 Number of doubly external CSFs:            700336
 Total number of CSFs:                      701520

 Length of J-op  integral file:             104.98 MB
 Length of K-op  integral file:             138.67 MB

 Integral transformation finished. Total CPU:   1.56 sec, npass=  1  Memory used:   2.18 MW

 ITER.      SQ.NORM     CORR.ENERGY   TOTAL ENERGY   ENERGY CHANGE     VAR   MIC
   1      1.00000000    -0.44352925  -115.54365215    -0.44352925  0.00D+00   0
   2      1.11473748    -0.44352925  -115.54365215    -0.00000000  0.58D-17   0

 Solving MP2-F12 equations

   1      1.11470117    -0.48286853  -115.58299144    -0.03933929 -0.37D-04   0
   2      1.11470117    -0.48362513  -115.58374804    -0.00075660 -0.33D-18   0
   3      1.11470117    -0.48362513  -115.58374804     0.00000000 -0.13D-18   0

 CPU TIME FOR ITERATIVE MP2:    0.12 SEC


 MP2-F12 energy corrections:
 ===========================
 Approx.                                    Singlet             Triplet             Total
 MP2-F12/3*C(DX,FIX)                   -0.038287490164     -0.004212666370     -0.042500156533
 MP2-F12/3*C(FIX)                      -0.036088709920     -0.003930923841     -0.040019633761
 MP2-F12/3C(FIX)                       -0.036028688911     -0.004067193009     -0.040095881920

 MP2-F12 correlation energies:
 =============================
 Approx.                                    Singlet             Triplet             Ecorr            Total Energy
 MP2                                   -0.291279816553     -0.152249431423     -0.443529247977   -115.543652153361
 MP2-F12/3*C(DX,FIX)                   -0.329567306717     -0.156462097793     -0.486029404510   -115.586152309895
 MP2-F12/3*C(FIX)                      -0.327368526473     -0.156180355264     -0.483548881737   -115.583671787122
 MP2-F12/3C(FIX)                       -0.327308505464     -0.156316624433     -0.483625129896   -115.583748035281

 SCS-MP2 energies (F_SING= 1.20000  F_TRIP= 0.62222  F_PARALLEL= 0.33333):
 =========================================================================
 SCS-MP2                               -0.444268759416   -115.544391664801
 SCS-MP2-F12/3*C(DX,FIX)               -0.492834962243   -115.592957867627
 SCS-MP2-F12/3*C(FIX)                  -0.490021119488   -115.590144024873
 SCS-MP2-F12/3C(FIX)                   -0.490033883981   -115.590156789366


  Reference energy                   -115.098769289560
  F12 singles correction               -0.001353615824

 F12 singles corrections added to reference energy

  New reference energy               -115.100122905385

  F12/3C(F) singlet correction         -0.036028688911
  F12/3C(F) triplet correction         -0.004067193009
  F12/3C(F) total correction           -0.040095881920
  MP2-F12/3C(F) singlet pair energy    -0.327308505464
  MP2-F12/3C(F) triplet pair energy    -0.156316624433
  MP2-F12/3C(F) correlation energy     -0.483625129896

 !MP2-F12/3C(F) total energy         -115.583748035281


 **********************************************************************************************************************************
 DATASETS  * FILE   NREC   LENGTH (MB)   RECORD NAMES
              1      20      566.48       500      610      700      900      950      970     1000      129      960     1100   
                                          VAR    BASINP    GEOM    SYMINP    ZMAT    AOBASIS   BASIS     P2S    ABASIS      S 
                                         1400     1410     1200     1210     1080     1600     1650     1300     1700     1380   
                                           T        V       H0       H01     AOSYM     SMH    MOLCAS    ERIS     OPER     JKOP   

              2       7        4.13       700     1000      520     2100     7360     7350     7000   
                                         GEOM     BASIS   MCVARS     RHF    F12ABS    EF12   

 PROGRAMS   *        TOTAL   MP2-F12    HF-SCF       INT
 CPU TIMES  *        26.91      9.46      8.45      8.86
 REAL TIME  *       198.48 SEC
 DISK USED  *         2.14 GB
 **********************************************************************************************************************************


 PROGRAM * CCSD (Closed-shell coupled cluster)     Authors: C. Hampel, H.-J. Werner, 1991, M. Deegan, P.J. Knowles, 1992

                                  CCSD-F12 implementation by  H.-J. Werner, 2007

                   Density fitting integral evaluation by F.R. Manby, 2003,2007, G. Knizia, 2010



 Convergence thresholds:  THRVAR = 1.00D-08  THRDEN = 1.00D-06

 CCSD(T)     terms to be evaluated (factor= 1.000)


 Number of core orbitals:           2 (   2 )
 Number of closed-shell orbitals:   7 (   7 )
 Number of external orbitals:     169 ( 169 )

 Molecular orbitals read from record     2100.2  Type=RHF/CANONICAL (state 1.1)

 MP2-F12 correlation treatment (H.-J. Werner, 2006)
 ==================================================

 Using MP2-F12 with ansatz 3C(FIX)

 Using projected zeroth-order Hamiltonian (+Z)

 FOCKRIB=T FOCKRIC=T FOCKRIP=T CABSP=T CABSA=T CABSK=T CABSF=T GBC=F EBC=F DMAT=T NOFIK=T NOPAO=1 SOLVE=-1  USEPAO=0
 EXCH_A= T EXCH_B= F EXCH_C= F EXCH_P= F

 Geminal basis:    OPTFULL  GEM_TYPE=SLATER  BETA=1.0  NGEM=6

 Optimizing Gaussian exponents for each gem_beta

 Geminal optimization for beta= 1.0000
 Weight function:   m=0, omega= 1.4646

 Augmented Hessian optimization of geminal fit. Trust ratio= 0.40000
 Convergence reached after   2 iterations. Final gradient= 8.66D-16, Step= 4.23D-06, Delta= 1.28D-09

 Alpha:                 0.19532     0.81920     2.85917     9.50073    35.69989   197.79328
 Coeff:                 0.27070     0.30552     0.18297     0.10986     0.06810     0.04224


 All pairs explicitly correlated. Number of r12-pairs:           28

 Excluding core orbitals from MO domains

 AO(A)-basis ORBITAL           loaded. Number of functions:     178
 RI(R)-basis CC-PVTZ-F12/OPTRI loaded. Number of functions:     314
 DF-basis AUG-CC-PVTZ/JKFIT    loaded. Number of functions:     392

 Screening thresholds:   THRAO=  1.00D-10  THRMO=  1.00D-09  THRPROD=  1.00D-09
                         THRSW=  1.00D-05  THROV=  1.00D-12  THRAOF12= 1.00D-08

 CPU time for Fock operators                      1.75 sec

 Construction of ABS:
 Smallest eigenvalue of S          4.37E-04  (threshold= 1.00E-08)
 Ratio eigmin/eigmax               5.58E-05  (threshold= 1.00E-09)
 Smallest eigenvalue of S kept     4.37E-04  (threshold= 4.37E-04, 0 functions deleted, 314 kept)

 Construction of CABS:
 Smallest eigenvalue of S          7.26E-07  (threshold= 1.00E-08)
 Ratio eigmin/eigmax               7.26E-07  (threshold= 1.00E-09)
 Smallest eigenvalue of S kept     7.26E-07  (threshold= 7.26E-07, 0 functions deleted, 314 kept)

 CPU time for CABS singles                        0.04 sec

 CABS-singles contribution of  -0.00135362 patched into reference energy.
 New reference energy        -115.10012291

 AO(A)-basis ORBITAL           loaded. Number of functions:     178
 RI(R)-basis CC-PVTZ-F12/OPTRI loaded. Number of functions:     314
 DF-basis AUG-CC-PVTZ/MP2FIT   loaded. Number of functions:     396

 Screening thresholds:   THRAO=  1.00D-10  THRMO=  1.00D-09  THRPROD=  1.00D-09
                         THRSW=  1.00D-05  THROV=  1.00D-12  THRAOF12= 1.00D-08

 CPU time for 3-index integral evaluation         4.34 sec
 CPU time for first  half transformation          0.28 sec ( 8818.0 MFLOP/sec)
 CPU time for second half transformation          0.02 sec ( 3108.5 MFLOP/sec)
 CPU time for fitting                             0.04 sec (28485.6 MFLOP/sec)
 CPU time for tilde quantities                    0.02 sec (75522.6 MFLOP/sec)
 CPU time for assembly                            0.21 sec (58826.6 MFLOP/sec)
 CPU time for tranop_f12                          0.29 sec (54690.4 MFLOP/sec)
 CPU time for f12 integrals (total)               5.66 sec, Elapsed time:      7.85 sec
 CPU time for f12 matrices (total)                0.12 sec, Elapsed time:      0.17 sec

 Diagonal F12 approximation with fixed coefficients:  TSING= 0.500,  TTRIP= 0.250 (scaled by -1/beta)

 DF-MP2-F12 energy corrections:
 ==============================
 Approx.                                    Singlet             Triplet             Total
 DF-MP2-F12/3*C(DX,FIX)                -0.038287490164     -0.004212666370     -0.042500156533
 DF-MP2-F12/3*C(FIX)                   -0.036088709920     -0.003930923841     -0.040019633761
 DF-MP2-F12/3C(FIX)                    -0.036031390050     -0.004065895969     -0.040097286019

 DF-MP2-F12 correlation energies:
 ================================
 Approx.                                    Singlet             Triplet             Ecorr            Total Energy
 DF-MP2                                -0.291096500820     -0.152366347510     -0.443462848330   -115.543585753714
 DF-MP2-F12/3*C(DX,FIX)                -0.329383990984     -0.156579013879     -0.485963004863   -115.586085910248
 DF-MP2-F12/3*C(FIX)                   -0.327185210740     -0.156297271350     -0.483482482091   -115.583605387475
 DF-MP2-F12/3C(FIX)                    -0.327127890870     -0.156432243479     -0.483560134349   -115.583683039733

 SCS-DF-MP2 energies (F_SING= 1.20000  F_TRIP= 0.62222  F_PARALLEL= 0.33333):
 ============================================================================
 SCS-DF-MP2                            -0.444121528323   -115.544244433708
 SCS-DF-MP2-F12/3*C(DX,FIX)            -0.492687731150   -115.592810636535
 SCS-DF-MP2-F12/3*C(FIX)               -0.489873888395   -115.589996793780
 SCS-DF-MP2-F12/3C(FIX)                -0.489889087208   -115.590011992593
 Symmetry transformation completed.

 Number of N-1 electron functions:               7
 Number of N-2 electron functions:              28
 Number of singly external CSFs:              1183
 Number of doubly external CSFs:            700336
 Total number of CSFs:                      701520

 Length of J-op  integral file:             105.23 MB
 Length of K-op  integral file:             138.67 MB
 Length of 3-ext integral record:             0.00 MB

 Memory could be reduced to 48.01 Mwords without degradation in triples

 Integral transformation finished. Total CPU:   3.39 sec, npass=  1  Memory used:  24.86 MW

 Reference energy:                   -115.10012291

 Adding F12 terms to K(Cij), methodcc=6,  factor= 1.0

 ITER.      SQ.NORM     CORR.ENERGY   TOTAL ENERGY   ENERGY CHANGE        DEN1      VAR(S)    VAR(P)  DIIS     TIME  TIME/IT
   1      1.11762504    -0.45286153  -115.55298443    -0.00933228     0.00166884  0.15D-02  0.19D-02  1  1    14.02    11.30
   2      1.12503461    -0.45322342  -115.55334633    -0.00036190    -0.00904628  0.24D-04  0.23D-03  2  2    17.09    14.00
   3      1.12776415    -0.45340085  -115.55352376    -0.00017743    -0.00186516  0.15D-04  0.13D-04  3  3    20.13    14.74
   4      1.12871136    -0.45341873  -115.55354164    -0.00001788    -0.00060015  0.86D-06  0.12D-05  4  4    23.17    14.82
   5      1.12886687    -0.45342029  -115.55354319    -0.00000156    -0.00003790  0.23D-06  0.10D-06  5  5    26.11    13.45
   6      1.12890943    -0.45341794  -115.55354084     0.00000235    -0.00000422  0.36D-07  0.96D-08  6  6    29.16    13.36
   7      1.12892055    -0.45341706  -115.55353997     0.00000087    -0.00000298  0.39D-08  0.14D-08  6  1    32.04    12.28
   8      1.12892235    -0.45341712  -115.55354003    -0.00000006     0.00000033  0.67D-09  0.20D-09  6  3    35.01    12.14

 Norm of t1 vector:      0.05000376      S-energy:     0.00000010      T1 diagnostic:  0.00944982
                                                                       D1 diagnostic:  0.02003208

 Adding energy correction from Wij-K(Fij), methodcc=6  factor= 1.0

  CCSD correlation energy              -0.453417123846
  MP2-F12 correction (uncoupled)       -0.038545735329
  C*T doubles correction               -0.001164804540
  f12b correction                       0.007098783906


 Total CPU time for triples:     37.32 sec


 RESULTS
 =======

  Reference energy                   -115.098769289560
  F12 singles correction               -0.001353615824

 F12 singles corrections added to reference energy

  New reference energy               -115.100122905385

  F12a singlet correction              -0.035791933884
  F12a triplet correction              -0.003918605985
  F12a total correction                -0.039710539868

 F12a corrections for ansatz F12/3C(FIX) added to CCSD energy

  CCSD-F12a singlet pair energy        -0.351210491507
  CCSD-F12a triplet pair energy        -0.141917273213
  CCSD-F12a correlation energy         -0.493127663714

  Triples (T) contribution             -0.016014735593
  Total correlation energy             -0.509142399307

  CCSD-F12a total energy             -115.593250569099
  CCSD[T]-F12a energy                -115.609818365280
  CCSD-T-F12a energy                 -115.609021587288
 !CCSD(T)-F12a total energy          -115.609265304691

 F12b corrections for ansatz F12/3C(FIX) added to CCSD(T)-F12a energy

  CCSD-F12b singlet pair energy        -0.344573797140
  CCSD-F12b triplet pair energy        -0.141455183673
  CCSD-F12b correlation energy         -0.486028879808

  Triples (T) contribution             -0.016014735593
  Total correlation energy             -0.502043615400

  CCSD-F12b total energy             -115.586151785192
  CCSD[T]-F12b energy                -115.602719581374
  CCSD-T-F12b energy                 -115.601922803382
 !CCSD(T)-F12b total energy          -115.602166520785

 Timing summary (sec):

 STEP                 CPU(USER)    SYS     CPU(TOT)    WALL
 Transformation          3.43      2.15      5.58     18.74
 CCSD iterations        23.92      8.65     32.57     97.27
 Triples                37.32      1.29     38.61     40.05
 MP2-F12                 7.67      1.05      8.72     10.14
 F12b energy             2.34      0.38      2.72      5.00

 Program statistics:

 Available memory in ccsd:               499999646
 Min. memory needed in ccsd:               2228017
 Max. memory used in ccsd:                 2807120
 Max. memory used in cckext:               2027429 ( 9 integral passes)



 **********************************************************************************************************************************
 DATASETS  * FILE   NREC   LENGTH (MB)   RECORD NAMES
              1      20      702.43       500      610      700      900      950      970     1000      129      960     1100   
                                          VAR    BASINP    GEOM    SYMINP    ZMAT    AOBASIS   BASIS     P2S    ABASIS      S 
                                         1400     1410     1200     1210     1080     1600     1650     1300     1700     1380   
                                           T        V       H0       H01     AOSYM     SMH    MOLCAS    ERIS     OPER     JKOP   

              2       7        4.13       700     1000      520     2100     7360     7350     7000   
                                         GEOM     BASIS   MCVARS     RHF    F12ABS    EF12   

 PROGRAMS   *        TOTAL   CCSD(T)   MP2-F12    HF-SCF       INT
 CPU TIMES  *       101.64     74.71      9.46      8.45      8.86
 REAL TIME  *       369.89 SEC
 DISK USED  *         2.14 GB
 **********************************************************************************************************************************
 SETTING XXX            =    "MMM"
 SETTING POINT          =       100.00000000                                  

 *** ### CH3OH


 XXX       RCO          ROH          RCH1         RCH2         RCH3           ACOH           AOCH1          AOCH2          AOCH3         AHH1           AHH2           AHH3            ENERGY        POINT
 "MMM"   1.42077677   0.96013932   1.09171752   1.08440070   1.09171752   108.12930637   111.65221523   107.18733878   111.65221523   61.66934505   179.88214887   298.44850608   -115.60926530   100.0000
                                                  

 CCSD(T)-F12/cc-pVTZ-F12 energy=   -115.602166520785

     CCSD(T)-F12         MP2-F12          HF-SCF
   -115.60216652   -115.58374804   -115.09876929
 **********************************************************************************************************************************
 Molpro calculation terminated
