
 Primary working directories    : /tmpdir/job/2955640.undefined/molpro.2FRhrTxXtz
 Secondary working directories  : /tmpdir/job/2955640.undefined/molpro.2FRhrTxXtz
 Wavefunction directory         : /home/zcaposm/wfu/
 Main file repository           : /tmpdir/job/2955640.undefined/molpro.2FRhrTxXtz/

 id        : uclcc

 Nodes                         nprocs
 node-d00a-059.myriad.ucl.ac.uk    1

 Using customized tuning parameters: mindgm=1; mindgv=20; mindgc=4; mindgr=1; noblas=0; minvec=7
 default implementation of scratch files=df  


 Variables initialized (945), CPU time= 0.01 sec
 ***,Methanol Ground State Energy with CCSD(T)-F12 and cc-pVTZ-F12
 memory,500,m;
 
 geometry={angstrom
 c
 o , 1, rco
 h , 2, roh, 1, acoh
 h1, 1, rch1, 2, aoch1  3  ahh1
 h2, 1, rch2, 2, aoch2, 3, ahh2
 h3, 1, rch3, 2, aoch3, 3, ahh3
 }
 
                                                ! Specify the initial values of the internal coordinates (in Angstroms and degrees)
 
 rco= 1.42077677
 roh= 0.96013932
 rch1= 1.091717515605
 rch2= 1.08440070258
 rch3= 1.091717515605
 acoh= 108.12930637
 aoch1= 113.1522152299
 aoch2= 107.18733878260001
 aoch3= 111.6522152299
 ahh1=61.43364279
 ahh2=180.0
 ahh3=298.56635721
 
                                                                                 ! Use the cc-pVTZ-F12 basis set
 basis=cc-pVTZ-F12
 
 hf
 
                                                                                 ! Use explicitly correlated F12 methods
                                                                            ! First, MP2-F12 (useful for initial electronic energy)
 {mp2-f12}
 
                                                                        ! If desired, perform CCSD(T)-F12 for more accurate results
 {ccsd(t)-f12}
 
                                                                                 ! Output the energy
 xxx = "mmm"
 point = 72
 text ### CH3OH
 table,xxx,rco,roh,rch1,rch2,rch3,acoh,aoch1,aoch2,aoch3,ahh1,ahh2,ahh3,energy,point
 DIGITS, 0, 8, 8, 8, 8, 8, 8, 8, 8, 8,  8,  8,  8, 8, 4
 save,CH3OH_MEP_MP2_72.dat,new
 
 Commands  initialized (802), CPU time= 0.01 sec, 659 directives.
 Default parameters read. Elapsed time= 1.31 sec

 Checking input...
 Passed
1


                                         ***  PROGRAM SYSTEM MOLPRO  ***
                                       Copyright, TTI GmbH Stuttgart, 2015
                                    Version 2020.1 linked Oct  6 2020 12:04:11


 **********************************************************************************************************************************
 LABEL *   Methanol Ground State Energy with CCSD(T)-F12 and cc-pVTZ-F12                 
  64 bit serial version                                                                  DATE: 08-Oct-24          TIME: 17:30:41  
 **********************************************************************************************************************************

 SHA1:             8c27446f6450a7499e38f603e13c65f775101d37
 **********************************************************************************************************************************

 Memory per process:       500 MW
 Total memory per node:    500 MW

 GA preallocation disabled
 GA check disabled

 Variable memory set to 500.0 MW

 SETTING RCO            =         1.42077677                                  
 SETTING ROH            =         0.96013932                                  
 SETTING RCH1           =         1.09171752                                  
 SETTING RCH2           =         1.08440070                                  
 SETTING RCH3           =         1.09171752                                  
 SETTING ACOH           =       108.12930637                                  
 SETTING AOCH1          =       113.15221523                                  
 SETTING AOCH2          =       107.18733878                                  
 SETTING AOCH3          =       111.65221523                                  
 SETTING AHH1           =        61.43364279                                  
 SETTING AHH2           =       180.00000000                                  
 SETTING AHH3           =       298.56635721                                  
 SETTING BASIS          =    CC-PVTZ-F12


 Recomputing integrals since basis changed


 Using spherical harmonics

 Library entry C      S cc-pVTZ-F12          selected for orbital group  1
 Library entry C      P cc-pVTZ-F12          selected for orbital group  1
 Library entry C      D cc-pVTZ-F12          selected for orbital group  1
 Library entry C      F cc-pVTZ-F12          selected for orbital group  1
 Library entry O      S cc-pVTZ-F12          selected for orbital group  2
 Library entry O      P cc-pVTZ-F12          selected for orbital group  2
 Library entry O      D cc-pVTZ-F12          selected for orbital group  2
 Library entry O      F cc-pVTZ-F12          selected for orbital group  2
 Library entry H      S cc-pVTZ-F12          selected for orbital group  3
 Library entry H      P cc-pVTZ-F12          selected for orbital group  3
 Library entry H      D cc-pVTZ-F12          selected for orbital group  3


 PROGRAM * SEWARD (Integral evaluation for generally contracted gaussian basis sets)     Author: Roland Lindh, 1990

 Geometry written to block  1 of record 700

 Orientation using atomic masses  
 Molecule type: Asymmetric top
 Rotational constants:      23.8948487     24.7560734    129.4753368 GHz  (calculated with average atomic masses)

 Point group  C1  



 ATOMIC COORDINATES

 NR  ATOM    CHARGE       X              Y              Z

   1  C       6.00   -0.000192846    0.024604081   -1.375021339
   2  O       8.00    0.000182340   -0.121070059    1.305902762
   3  H       1.00    0.019885137    1.569973964    1.963193081
   4  H1      1.00    1.675884551    0.955351227   -2.137017198
   5  H2      1.00   -0.022557400   -1.897240630   -2.085877671
   6  H3      1.00   -1.673808604    1.000513060   -2.084087865

 Bond lengths in Bohr (Angstrom)

 1-2  2.684878979  1-4  2.063047110  1-5  2.049220337  1-6  2.063047110  2-3  1.814400356
     ( 1.420776770)     ( 1.091717516)     ( 1.084400703)     ( 1.091717516)     ( 0.960139320)

 Bond angles

  1-2-3  108.12930637   2-1-4  113.15221523   2-1-5  107.18733878   2-1-6  111.65221523

  4-1-5  107.68897329   4-1-6  108.58489301   5-1-6  108.39459424

 NUCLEAR CHARGE:                   18
 NUMBER OF PRIMITIVE AOS:         228
 NUMBER OF SYMMETRY AOS:          206
 NUMBER OF CONTRACTIONS:          178   (  178A   )
 NUMBER OF INNER CORE ORBITALS:     0   (    0A   )
 NUMBER OF OUTER CORE ORBITALS:     2   (    2A   )
 NUMBER OF VALENCE ORBITALS:       12   (   12A   )


 NUCLEAR REPULSION ENERGY   40.32913552

 Eigenvalues of metric

         1 0.879E-04 0.183E-03 0.310E-03 0.323E-03 0.460E-03 0.493E-03 0.560E-03 0.570E-03


 Contracted 2-electron integrals neglected if value below      1.0D-11
 AO integral compression algorithm  1   Integral accuracy      1.0D-11

     608.174 MB (compressed) written to integral file ( 51.0%)


 NUMBER OF SORTED TWO-ELECTRON INTEGRALS:  126906346.     BUFFER LENGTH:  32768
 NUMBER OF SEGMENTS:   8  SEGMENT LENGTH:   15999503      RECORD LENGTH: 524288

 Memory used in sort:      16.56 MW

 SORT1 READ   149034713. AND WROTE   124756744. INTEGRALS IN    360 RECORDS. CPU TIME:     1.99 SEC, REAL TIME:    29.60 SEC
 SORT2 READ   124756744. AND WROTE   126906346. INTEGRALS IN   2320 RECORDS. CPU TIME:     1.76 SEC, REAL TIME:    41.84 SEC

 FILE SIZES:   FILE 1:   639.4 MBYTE,  FILE 4:  1510.0 MBYTE,   TOTAL:   2149.4 MBYTE

 OPERATOR DM      FOR CENTER  0  COORDINATES:    0.000000    0.000000    0.000000


 **********************************************************************************************************************************
 DATASETS  * FILE   NREC   LENGTH (MB)   RECORD NAMES
              1      19      561.61       500      610      700      900      950      970     1000      129      960     1100   
                                          VAR    BASINP    GEOM    SYMINP    ZMAT    AOBASIS   BASIS     P2S    ABASIS      S 
                                         1400     1410     1200     1210     1080     1600     1650     1300     1700   
                                           T        V       H0       H01     AOSYM     SMH    MOLCAS    ERIS     OPER   

 PROGRAMS   *        TOTAL       INT
 CPU TIMES  *         9.01      8.76
 REAL TIME  *        93.42 SEC
 DISK USED  *         2.15 GB
 **********************************************************************************************************************************


 PROGRAM * RHF-SCF (CLOSED SHELL)       Authors: W. Meyer, H.-J. Werner


 NUMBER OF ELECTRONS:       9+    9-    SPACE SYMMETRY=1    SPIN SYMMETRY: Singlet 
 CONVERGENCE THRESHOLDS:    1.00E-05 (Density)    1.00E-07 (Energy)
 MAX. NUMBER OF ITERATIONS:       60
 INTERPOLATION TYPE:            DIIS
 INTERPOLATION STEPS:              2 (START)      1 (STEP)
 LEVEL SHIFTS:                  0.00 (CLOSED)  0.00 (OPEN) 



 Orbital guess generated from atomic densities. Full valence occupancy:   14

 Molecular orbital dump at record        2100.2

 Initial occupancy:   9

 ITERATION    DDIFF          GRAD             ENERGY        2-EL.EN.            DIPOLE MOMENTS         DIIS   ORB.
    1      0.000D+00      0.000D+00      -115.06240041    164.433430    0.01245    0.90527   -0.47862    0    start
    2      0.000D+00      0.505D-02      -115.09067554    161.867717    0.00553    0.49718   -0.30375    1    diag
    3      0.479D-02      0.276D-02      -115.09809212    163.124757    0.00744    0.60064   -0.39666    2    diag
    4      0.163D-02      0.547D-03      -115.09862514    162.947494    0.00736    0.59544   -0.39180    3    diag
    5      0.437D-03      0.110D-03      -115.09865963    162.958958    0.00733    0.59147   -0.39652    4    diag
    6      0.122D-03      0.205D-04      -115.09866119    162.956768    0.00733    0.59161   -0.39727    5    diag
    7      0.349D-04      0.433D-05      -115.09866126    162.956361    0.00733    0.59143   -0.39753    6    diag
    8      0.872D-05      0.114D-05      -115.09866127    162.956716    0.00733    0.59143   -0.39755    0    orth

 Final occupancy:   9

 !RHF STATE  1.1 Energy              -115.098661267629
 Nuclear energy                        40.32913552
 One-electron energy                 -236.90615493
 Two-electron energy                   81.47835814
 Virial quotient                       -1.00103914
 !RHF STATE  1.1 Dipole moment          0.00732832     0.59142545    -0.39754620
 Dipole moment /Debye                   0.01862551     1.50315509    -1.01039547

 Orbital energies:

         1.1          2.1          3.1          4.1          5.1          6.1          7.1          8.1          9.1         10.1
    -20.557242   -11.269741    -1.357259    -0.926835    -0.691710    -0.620329    -0.594337    -0.504887    -0.452379     0.054551

        11.1
      0.064930


 HOMO      9.1    -0.452379 =     -12.3099eV
 LUMO     10.1     0.054551 =       1.4844eV
 LUMO-HOMO         0.506930 =      13.7943eV


 **********************************************************************************************************************************
 DATASETS  * FILE   NREC   LENGTH (MB)   RECORD NAMES
              1      19      561.61       500      610      700      900      950      970     1000      129      960     1100   
                                          VAR    BASINP    GEOM    SYMINP    ZMAT    AOBASIS   BASIS     P2S    ABASIS      S 
                                         1400     1410     1200     1210     1080     1600     1650     1300     1700   
                                           T        V       H0       H01     AOSYM     SMH    MOLCAS    ERIS     OPER   

              2       4        3.48       700     1000      520     2100   
                                         GEOM     BASIS   MCVARS     RHF  

 PROGRAMS   *        TOTAL    HF-SCF       INT
 CPU TIMES  *        16.69      7.68      8.76
 REAL TIME  *       104.64 SEC
 DISK USED  *         2.15 GB
 **********************************************************************************************************************************


 PROGRAM * MP2 (Closed-shell)     Authors: C. Hampel, H.-J. Werner, 1991, M. Deegan, P.J. Knowles, 1992

                                   MP2-F12 implementation by H.-J. Werner, 2007

                   Density fitting integral evaluation by F.R. Manby, 2003,2007, G. Knizia, 2010


 Basis set AUG-CC-PVTZ/JKFIT generated.  Number of basis functions:   392 
 Basis set CC-PVTZ-F12/OPTRI generated.  Number of basis functions:   314 
 Basis set AUG-CC-PVTZ/MP2FIT generated. Number of basis functions:   396 

 Convergence thresholds:  THRVAR = 1.00D-08  THRDEN = 1.00D-06

 Number of core orbitals:           2 (   2 )
 Number of closed-shell orbitals:   7 (   7 )
 Number of external orbitals:     169 ( 169 )

 Molecular orbitals read from record     2100.2  Type=RHF/CANONICAL (state 1.1)

 MP2-F12 correlation treatment (H.-J. Werner, 2006)
 ==================================================

 Using MP2-F12 with ansatz 3C(FIX)

 Using projected zeroth-order Hamiltonian (+Z)

 FOCKRIB=T FOCKRIC=T FOCKRIP=T CABSP=T CABSA=T CABSK=T CABSF=T GBC=F EBC=F DMAT=T NOFIK=T NOPAO=1 SOLVE=-1  USEPAO=0
 EXCH_A= T EXCH_B= F EXCH_C= F EXCH_P= F

 Geminal basis:    OPTFULL  GEM_TYPE=SLATER  BETA=1.0  NGEM=6

 Optimizing Gaussian exponents for each gem_beta

 Geminal optimization for beta= 1.0000
 Weight function:   m=0, omega= 1.4646

 Augmented Hessian optimization of geminal fit. Trust ratio= 0.40000
 Convergence reached after   2 iterations. Final gradient= 8.66D-16, Step= 4.23D-06, Delta= 1.28D-09

 Alpha:                 0.19532     0.81920     2.85917     9.50073    35.69989   197.79328
 Coeff:                 0.27070     0.30552     0.18297     0.10986     0.06810     0.04224


 All pairs explicitly correlated. Number of r12-pairs:           28

 Excluding core orbitals from MO domains

 AO(A)-basis ORBITAL           loaded. Number of functions:     178
 RI(R)-basis CC-PVTZ-F12/OPTRI loaded. Number of functions:     314
 DF-basis AUG-CC-PVTZ/JKFIT    loaded. Number of functions:     392

 Screening thresholds:   THRAO=  1.00D-10  THRMO=  1.00D-09  THRPROD=  1.00D-09
                         THRSW=  1.00D-05  THROV=  1.00D-12  THRAOF12= 1.00D-08

 CPU time for Fock operators                      1.52 sec

 Construction of ABS:
 Smallest eigenvalue of S          4.36E-04  (threshold= 1.00E-08)
 Ratio eigmin/eigmax               5.58E-05  (threshold= 1.00E-09)
 Smallest eigenvalue of S kept     4.36E-04  (threshold= 4.36E-04, 0 functions deleted, 314 kept)

 Construction of CABS:
 Smallest eigenvalue of S          7.28E-07  (threshold= 1.00E-08)
 Ratio eigmin/eigmax               7.28E-07  (threshold= 1.00E-09)
 Smallest eigenvalue of S kept     7.28E-07  (threshold= 7.28E-07, 0 functions deleted, 314 kept)

 CPU time for CABS singles                        0.04 sec

 CABS-singles contribution of  -0.00135415 patched into reference energy.
 New reference energy        -115.10001541

 AO(A)-basis ORBITAL           loaded. Number of functions:     178
 RI(R)-basis CC-PVTZ-F12/OPTRI loaded. Number of functions:     314
 DF-basis AUG-CC-PVTZ/MP2FIT   loaded. Number of functions:     396

 Screening thresholds:   THRAO=  1.00D-10  THRMO=  1.00D-09  THRPROD=  1.00D-09
                         THRSW=  1.00D-05  THROV=  1.00D-12  THRAOF12= 1.00D-08

 CPU time for 3-index integral evaluation         3.42 sec
 CPU time for first  half transformation          0.20 sec (12345.3 MFLOP/sec)
 CPU time for sorting                             0.02 sec
 CPU time for fitting                             0.02 sec (56971.3 MFLOP/sec)
 CPU time for tilde quantities                    0.03 sec (50348.4 MFLOP/sec)
 CPU time for assembly                            0.20 sec (61768.0 MFLOP/sec)
 CPU time for tranop_f12                          0.27 sec (58741.6 MFLOP/sec)
 CPU time for f12 integrals (total)               4.57 sec, Elapsed time:      5.85 sec
 CPU time for f12 matrices (total)                0.10 sec, Elapsed time:      0.16 sec

 Diagonal F12 approximation with fixed coefficients:  TSING= 0.500,  TTRIP= 0.250 (scaled by -1/beta)

 DF-MP2-F12 energy corrections:
 ==============================
 Approx.                                    Singlet             Triplet             Total
 DF-MP2-F12/3*C(DX,FIX)                -0.038281436151     -0.004211055362     -0.042492491513
 DF-MP2-F12/3*C(FIX)                   -0.036084108870     -0.003929406900     -0.040013515770
 DF-MP2-F12/3C(FIX)                    -0.036026375869     -0.004064245338     -0.040090621206

 DF-MP2-F12 correlation energies:
 ================================
 Approx.                                    Singlet             Triplet             Ecorr            Total Energy
 DF-MP2                                -0.291118906072     -0.152405089722     -0.443523995793   -115.543539410117
 DF-MP2-F12/3*C(DX,FIX)                -0.329400342223     -0.156616145084     -0.486016487306   -115.586031901630
 DF-MP2-F12/3*C(FIX)                   -0.327203014941     -0.156334496622     -0.483537511564   -115.583552925887
 DF-MP2-F12/3C(FIX)                    -0.327145281940     -0.156469335060     -0.483614617000   -115.583630031323

 SCS-DF-MP2 energies (F_SING= 1.20000  F_TRIP= 0.62222  F_PARALLEL= 0.33333):
 ============================================================================
 SCS-DF-MP2                            -0.444172520891   -115.544187935214
 SCS-DF-MP2-F12/3*C(DX,FIX)            -0.492730456497   -115.592745870820
 SCS-DF-MP2-F12/3*C(FIX)               -0.489918415828   -115.589933830152
 SCS-DF-MP2-F12/3C(FIX)                -0.489933035699   -115.589948450022
 Symmetry transformation completed.

 Number of N-1 electron functions:               7
 Number of N-2 electron functions:              28
 Number of singly external CSFs:              1183
 Number of doubly external CSFs:            700336
 Total number of CSFs:                      701520

 Length of J-op  integral file:             104.98 MB
 Length of K-op  integral file:             138.67 MB

 Integral transformation finished. Total CPU:   1.34 sec, npass=  1  Memory used:   2.18 MW

 ITER.      SQ.NORM     CORR.ENERGY   TOTAL ENERGY   ENERGY CHANGE     VAR   MIC
   1      1.00000000    -0.44359030  -115.54360572    -0.44359030  0.00D+00   0
   2      1.11479044    -0.44359030  -115.54360572     0.00000000 -0.13D-15   0

 Solving MP2-F12 equations

   1      1.11475395    -0.48292350  -115.58293892    -0.03933320 -0.37D-04   0
   2      1.11475395    -0.48367953  -115.58369495    -0.00075603  0.48D-18   0
   3      1.11475395    -0.48367953  -115.58369495     0.00000000  0.94D-19   0

 CPU TIME FOR ITERATIVE MP2:    0.10 SEC


 MP2-F12 energy corrections:
 ===========================
 Approx.                                    Singlet             Triplet             Total
 MP2-F12/3*C(DX,FIX)                   -0.038281436151     -0.004211055362     -0.042492491513
 MP2-F12/3*C(FIX)                      -0.036084108870     -0.003929406900     -0.040013515770
 MP2-F12/3C(FIX)                       -0.036023684721     -0.004065544760     -0.040089229481

 MP2-F12 correlation energies:
 =============================
 Approx.                                    Singlet             Triplet             Ecorr            Total Energy
 MP2                                   -0.291302170885     -0.152288131382     -0.443590302267   -115.543605716590
 MP2-F12/3*C(DX,FIX)                   -0.329583607036     -0.156499186744     -0.486082793780   -115.586098208103
 MP2-F12/3*C(FIX)                      -0.327386279755     -0.156217538282     -0.483603818037   -115.583619232361
 MP2-F12/3C(FIX)                       -0.327325855606     -0.156353676142     -0.483679531748   -115.583694946071

 SCS-MP2 energies (F_SING= 1.20000  F_TRIP= 0.62222  F_PARALLEL= 0.33333):
 =========================================================================
 SCS-MP2                               -0.444319664589   -115.544335078912
 SCS-MP2-F12/3*C(DX,FIX)               -0.492877600195   -115.592893014518
 SCS-MP2-F12/3*C(FIX)                  -0.490065559526   -115.590080973849
 SCS-MP2-F12/3C(FIX)                   -0.490077758549   -115.590093172872


  Reference energy                   -115.098661267629
  F12 singles correction               -0.001354146694

 F12 singles corrections added to reference energy

  New reference energy               -115.100015414323

  F12/3C(F) singlet correction         -0.036023684721
  F12/3C(F) triplet correction         -0.004065544760
  F12/3C(F) total correction           -0.040089229481
  MP2-F12/3C(F) singlet pair energy    -0.327325855606
  MP2-F12/3C(F) triplet pair energy    -0.156353676142
  MP2-F12/3C(F) correlation energy     -0.483679531748

 !MP2-F12/3C(F) total energy         -115.583694946071


 **********************************************************************************************************************************
 DATASETS  * FILE   NREC   LENGTH (MB)   RECORD NAMES
              1      20      572.78       500      610      700      900      950      970     1000      129      960     1100   
                                          VAR    BASINP    GEOM    SYMINP    ZMAT    AOBASIS   BASIS     P2S    ABASIS      S 
                                         1400     1410     1200     1210     1080     1600     1650     1300     1700     1380   
                                           T        V       H0       H01     AOSYM     SMH    MOLCAS    ERIS     OPER     JKOP   

              2       7        4.13       700     1000      520     2100     7360     7350     7000   
                                         GEOM     BASIS   MCVARS     RHF    F12ABS    EF12   

 PROGRAMS   *        TOTAL   MP2-F12    HF-SCF       INT
 CPU TIMES  *        24.59      7.90      7.68      8.76
 REAL TIME  *       114.68 SEC
 DISK USED  *         2.15 GB
 **********************************************************************************************************************************


 PROGRAM * CCSD (Closed-shell coupled cluster)     Authors: C. Hampel, H.-J. Werner, 1991, M. Deegan, P.J. Knowles, 1992

                                  CCSD-F12 implementation by  H.-J. Werner, 2007

                   Density fitting integral evaluation by F.R. Manby, 2003,2007, G. Knizia, 2010



 Convergence thresholds:  THRVAR = 1.00D-08  THRDEN = 1.00D-06

 CCSD(T)     terms to be evaluated (factor= 1.000)


 Number of core orbitals:           2 (   2 )
 Number of closed-shell orbitals:   7 (   7 )
 Number of external orbitals:     169 ( 169 )

 Molecular orbitals read from record     2100.2  Type=RHF/CANONICAL (state 1.1)

 MP2-F12 correlation treatment (H.-J. Werner, 2006)
 ==================================================

 Using MP2-F12 with ansatz 3C(FIX)

 Using projected zeroth-order Hamiltonian (+Z)

 FOCKRIB=T FOCKRIC=T FOCKRIP=T CABSP=T CABSA=T CABSK=T CABSF=T GBC=F EBC=F DMAT=T NOFIK=T NOPAO=1 SOLVE=-1  USEPAO=0
 EXCH_A= T EXCH_B= F EXCH_C= F EXCH_P= F

 Geminal basis:    OPTFULL  GEM_TYPE=SLATER  BETA=1.0  NGEM=6

 Optimizing Gaussian exponents for each gem_beta

 Geminal optimization for beta= 1.0000
 Weight function:   m=0, omega= 1.4646

 Augmented Hessian optimization of geminal fit. Trust ratio= 0.40000
 Convergence reached after   2 iterations. Final gradient= 8.66D-16, Step= 4.23D-06, Delta= 1.28D-09

 Alpha:                 0.19532     0.81920     2.85917     9.50073    35.69989   197.79328
 Coeff:                 0.27070     0.30552     0.18297     0.10986     0.06810     0.04224


 All pairs explicitly correlated. Number of r12-pairs:           28

 Excluding core orbitals from MO domains

 AO(A)-basis ORBITAL           loaded. Number of functions:     178
 RI(R)-basis CC-PVTZ-F12/OPTRI loaded. Number of functions:     314
 DF-basis AUG-CC-PVTZ/JKFIT    loaded. Number of functions:     392

 Screening thresholds:   THRAO=  1.00D-10  THRMO=  1.00D-09  THRPROD=  1.00D-09
                         THRSW=  1.00D-05  THROV=  1.00D-12  THRAOF12= 1.00D-08

 CPU time for Fock operators                      1.49 sec

 Construction of ABS:
 Smallest eigenvalue of S          4.36E-04  (threshold= 1.00E-08)
 Ratio eigmin/eigmax               5.58E-05  (threshold= 1.00E-09)
 Smallest eigenvalue of S kept     4.36E-04  (threshold= 4.36E-04, 0 functions deleted, 314 kept)

 Construction of CABS:
 Smallest eigenvalue of S          7.28E-07  (threshold= 1.00E-08)
 Ratio eigmin/eigmax               7.28E-07  (threshold= 1.00E-09)
 Smallest eigenvalue of S kept     7.28E-07  (threshold= 7.28E-07, 0 functions deleted, 314 kept)

 CPU time for CABS singles                        0.05 sec

 CABS-singles contribution of  -0.00135415 patched into reference energy.
 New reference energy        -115.10001541

 AO(A)-basis ORBITAL           loaded. Number of functions:     178
 RI(R)-basis CC-PVTZ-F12/OPTRI loaded. Number of functions:     314
 DF-basis AUG-CC-PVTZ/MP2FIT   loaded. Number of functions:     396

 Screening thresholds:   THRAO=  1.00D-10  THRMO=  1.00D-09  THRPROD=  1.00D-09
                         THRSW=  1.00D-05  THROV=  1.00D-12  THRAOF12= 1.00D-08

 CPU time for 3-index integral evaluation         3.43 sec
 CPU time for first  half transformation          0.20 sec (12345.3 MFLOP/sec)
 CPU time for second half transformation          0.01 sec ( 6217.0 MFLOP/sec)
 CPU time for sorting                             0.02 sec
 CPU time for fitting                             0.02 sec (56971.3 MFLOP/sec)
 CPU time for tilde quantities                    0.03 sec (50348.4 MFLOP/sec)
 CPU time for assembly                            0.21 sec (58826.6 MFLOP/sec)
 CPU time for tranop_f12                          0.26 sec (61000.9 MFLOP/sec)
 CPU time for f12 integrals (total)               4.57 sec, Elapsed time:      5.06 sec
 CPU time for f12 matrices (total)                0.10 sec, Elapsed time:      0.14 sec

 Diagonal F12 approximation with fixed coefficients:  TSING= 0.500,  TTRIP= 0.250 (scaled by -1/beta)

 DF-MP2-F12 energy corrections:
 ==============================
 Approx.                                    Singlet             Triplet             Total
 DF-MP2-F12/3*C(DX,FIX)                -0.038281436151     -0.004211055362     -0.042492491513
 DF-MP2-F12/3*C(FIX)                   -0.036084108870     -0.003929406900     -0.040013515770
 DF-MP2-F12/3C(FIX)                    -0.036026375869     -0.004064245338     -0.040090621206

 DF-MP2-F12 correlation energies:
 ================================
 Approx.                                    Singlet             Triplet             Ecorr            Total Energy
 DF-MP2                                -0.291118906072     -0.152405089722     -0.443523995793   -115.543539410117
 DF-MP2-F12/3*C(DX,FIX)                -0.329400342223     -0.156616145084     -0.486016487306   -115.586031901630
 DF-MP2-F12/3*C(FIX)                   -0.327203014941     -0.156334496622     -0.483537511564   -115.583552925887
 DF-MP2-F12/3C(FIX)                    -0.327145281940     -0.156469335060     -0.483614617000   -115.583630031323

 SCS-DF-MP2 energies (F_SING= 1.20000  F_TRIP= 0.62222  F_PARALLEL= 0.33333):
 ============================================================================
 SCS-DF-MP2                            -0.444172520891   -115.544187935214
 SCS-DF-MP2-F12/3*C(DX,FIX)            -0.492730456497   -115.592745870820
 SCS-DF-MP2-F12/3*C(FIX)               -0.489918415828   -115.589933830152
 SCS-DF-MP2-F12/3C(FIX)                -0.489933035699   -115.589948450022
 Symmetry transformation completed.

 Number of N-1 electron functions:               7
 Number of N-2 electron functions:              28
 Number of singly external CSFs:              1183
 Number of doubly external CSFs:            700336
 Total number of CSFs:                      701520

 Length of J-op  integral file:             105.23 MB
 Length of K-op  integral file:             138.67 MB
 Length of 3-ext integral record:             0.00 MB

 Memory could be reduced to 48.01 Mwords without degradation in triples

 Integral transformation finished. Total CPU:   3.14 sec, npass=  1  Memory used:  24.86 MW

 Reference energy:                   -115.10001541

 Adding F12 terms to K(Cij), methodcc=6,  factor= 1.0

 ITER.      SQ.NORM     CORR.ENERGY   TOTAL ENERGY   ENERGY CHANGE        DEN1      VAR(S)    VAR(P)  DIIS     TIME  TIME/IT
   1      1.11767075    -0.45291147  -115.55292689    -0.00932117     0.00168227  0.15D-02  0.19D-02  1  1    12.21     5.24
   2      1.12508102    -0.45327254  -115.55328795    -0.00036106    -0.00904714  0.24D-04  0.23D-03  2  2    14.92     5.35
   3      1.12781165    -0.45344998  -115.55346539    -0.00017744    -0.00186540  0.15D-04  0.13D-04  3  3    17.65     5.44
   4      1.12875935    -0.45346783  -115.55348324    -0.00001785    -0.00060052  0.85D-06  0.12D-05  4  4    20.56     6.74
   5      1.12891471    -0.45346938  -115.55348480    -0.00000156    -0.00003794  0.23D-06  0.10D-06  5  5    23.22     6.30
   6      1.12895717    -0.45346704  -115.55348246     0.00000234    -0.00000421  0.35D-07  0.95D-08  6  6    25.92     6.50
   7      1.12896820    -0.45346617  -115.55348159     0.00000087    -0.00000297  0.39D-08  0.14D-08  6  1    28.61     6.39
   8      1.12896998    -0.45346623  -115.55348165    -0.00000006     0.00000033  0.66D-09  0.20D-09  6  3    31.35     6.75

 Norm of t1 vector:      0.05001104      S-energy:     0.00000011      T1 diagnostic:  0.00945120
                                                                       D1 diagnostic:  0.02008378

 Adding energy correction from Wij-K(Fij), methodcc=6  factor= 1.0

  CCSD correlation energy              -0.453466233730
  MP2-F12 correction (uncoupled)       -0.038540757001
  C*T doubles correction               -0.001163671355
  f12b correction                       0.007098187778


 Total CPU time for triples:     34.73 sec


 RESULTS
 =======

  Reference energy                   -115.098661267629
  F12 singles correction               -0.001354146694

 F12 singles corrections added to reference energy

  New reference energy               -115.100015414323

  F12a singlet correction              -0.035787335571
  F12a triplet correction              -0.003917092784
  F12a total correction                -0.039704428356

 F12a corrections for ansatz F12/3C(FIX) added to CCSD energy

  CCSD-F12a singlet pair energy        -0.351225633781
  CCSD-F12a triplet pair energy        -0.141945141271
  CCSD-F12a correlation energy         -0.493170662086

  Triples (T) contribution             -0.016023787538
  Total correlation energy             -0.509194449624

  CCSD-F12a total energy             -115.593186076409
  CCSD[T]-F12a energy                -115.609763109807
  CCSD-T-F12a energy                 -115.608966112852
 !CCSD(T)-F12a total energy          -115.609209863947

 F12b corrections for ansatz F12/3C(FIX) added to CCSD(T)-F12a energy

  CCSD-F12b singlet pair energy        -0.344589443850
  CCSD-F12b triplet pair energy        -0.141483143424
  CCSD-F12b correlation energy         -0.486072474308

  Triples (T) contribution             -0.016023787538
  Total correlation energy             -0.502096261846

  CCSD-F12b total energy             -115.586087888632
  CCSD[T]-F12b energy                -115.602664922029
  CCSD-T-F12b energy                 -115.601867925074
 !CCSD(T)-F12b total energy          -115.602111676169

 Timing summary (sec):

 STEP                 CPU(USER)    SYS     CPU(TOT)    WALL
 Transformation          3.18      1.81      4.99     10.12
 CCSD iterations        21.89      9.44     31.33     54.33
 Triples                34.73      2.18     36.91     41.37
 MP2-F12                 6.30      0.58      6.88      6.91
 F12b energy             2.17      0.23      2.40      2.89

 Program statistics:

 Available memory in ccsd:               499999646
 Min. memory needed in ccsd:               2228017
 Max. memory used in ccsd:                 2807120
 Max. memory used in cckext:               2027429 ( 9 integral passes)



 **********************************************************************************************************************************
 DATASETS  * FILE   NREC   LENGTH (MB)   RECORD NAMES
              1      20      708.73       500      610      700      900      950      970     1000      129      960     1100   
                                          VAR    BASINP    GEOM    SYMINP    ZMAT    AOBASIS   BASIS     P2S    ABASIS      S 
                                         1400     1410     1200     1210     1080     1600     1650     1300     1700     1380   
                                           T        V       H0       H01     AOSYM     SMH    MOLCAS    ERIS     OPER     JKOP   

              2       7        4.13       700     1000      520     2100     7360     7350     7000   
                                         GEOM     BASIS   MCVARS     RHF    F12ABS    EF12   

 PROGRAMS   *        TOTAL   CCSD(T)   MP2-F12    HF-SCF       INT
 CPU TIMES  *        92.90     68.31      7.90      7.68      8.76
 REAL TIME  *       230.46 SEC
 DISK USED  *         2.15 GB
 **********************************************************************************************************************************
 SETTING XXX            =    "MMM"
 SETTING POINT          =        72.00000000                                  

 *** ### CH3OH


 XXX       RCO          ROH          RCH1         RCH2         RCH3           ACOH           AOCH1          AOCH2          AOCH3         AHH1           AHH2           AHH3            ENERGY       POINT
 "MMM"   1.42077677   0.96013932   1.09171752   1.08440070   1.09171752   108.12930637   113.15221523   107.18733878   111.65221523   61.43364279   180.00000000   298.56635721   -115.60920986   72.0000
                                                  

 CCSD(T)-F12/cc-pVTZ-F12 energy=   -115.602111676169

     CCSD(T)-F12         MP2-F12          HF-SCF
   -115.60211168   -115.58369495   -115.09866127
 **********************************************************************************************************************************
 Molpro calculation terminated
