
 Primary working directories    : /tmpdir/job/2955653.undefined/molpro.4D4kBD6wSZ
 Secondary working directories  : /tmpdir/job/2955653.undefined/molpro.4D4kBD6wSZ
 Wavefunction directory         : /home/zcaposm/wfu/
 Main file repository           : /tmpdir/job/2955653.undefined/molpro.4D4kBD6wSZ/

 id        : uclcc

 Nodes                         nprocs
 node-d00a-115.myriad.ucl.ac.uk    1

 Using customized tuning parameters: mindgm=1; mindgv=20; mindgc=4; mindgr=1; noblas=0; minvec=7
 default implementation of scratch files=df  


 Variables initialized (945), CPU time= 0.00 sec
 ***,Methanol Ground State Energy with CCSD(T)-F12 and cc-pVTZ-F12
 memory,500,m;
 
 geometry={angstrom
 c
 o , 1, rco
 h , 2, roh, 1, acoh
 h1, 1, rch1, 2, aoch1  3  ahh1
 h2, 1, rch2, 2, aoch2, 3, ahh2
 h3, 1, rch3, 2, aoch3, 3, ahh3
 }
 
                                                ! Specify the initial values of the internal coordinates (in Angstroms and degrees)
 
 rco= 1.42077677
 roh= 0.96013932
 rch1= 1.091717515605
 rch2= 1.08440070258
 rch3= 1.091717515605
 acoh= 108.12930637
 aoch1= 111.6522152299
 aoch2= 108.68733878260001
 aoch3= 111.6522152299
 ahh1=61.43364279
 ahh2=180.0
 ahh3=298.56635721
 
                                                                                 ! Use the cc-pVTZ-F12 basis set
 basis=cc-pVTZ-F12
 
 hf
 
                                                                                 ! Use explicitly correlated F12 methods
                                                                            ! First, MP2-F12 (useful for initial electronic energy)
 {mp2-f12}
 
                                                                        ! If desired, perform CCSD(T)-F12 for more accurate results
 {ccsd(t)-f12}
 
                                                                                 ! Output the energy
 xxx = "mmm"
 point = 84
 text ### CH3OH
 table,xxx,rco,roh,rch1,rch2,rch3,acoh,aoch1,aoch2,aoch3,ahh1,ahh2,ahh3,energy,point
 DIGITS, 0, 8, 8, 8, 8, 8, 8, 8, 8, 8,  8,  8,  8, 8, 4
 save,CH3OH_MEP_MP2_84.dat,new
 
 Commands  initialized (802), CPU time= 0.00 sec, 659 directives.
 Default parameters read. Elapsed time= 0.10 sec

 Checking input...
 Passed
1


                                         ***  PROGRAM SYSTEM MOLPRO  ***
                                       Copyright, TTI GmbH Stuttgart, 2015
                                    Version 2020.1 linked Oct  6 2020 12:04:11


 **********************************************************************************************************************************
 LABEL *   Methanol Ground State Energy with CCSD(T)-F12 and cc-pVTZ-F12                 
  64 bit serial version                                                                  DATE: 08-Oct-24          TIME: 17:30:51  
 **********************************************************************************************************************************

 SHA1:             8c27446f6450a7499e38f603e13c65f775101d37
 **********************************************************************************************************************************

 Memory per process:       500 MW
 Total memory per node:    500 MW

 GA preallocation disabled
 GA check disabled

 Variable memory set to 500.0 MW

 SETTING RCO            =         1.42077677                                  
 SETTING ROH            =         0.96013932                                  
 SETTING RCH1           =         1.09171752                                  
 SETTING RCH2           =         1.08440070                                  
 SETTING RCH3           =         1.09171752                                  
 SETTING ACOH           =       108.12930637                                  
 SETTING AOCH1          =       111.65221523                                  
 SETTING AOCH2          =       108.68733878                                  
 SETTING AOCH3          =       111.65221523                                  
 SETTING AHH1           =        61.43364279                                  
 SETTING AHH2           =       180.00000000                                  
 SETTING AHH3           =       298.56635721                                  
 SETTING BASIS          =    CC-PVTZ-F12


 Recomputing integrals since basis changed


 Using spherical harmonics

 Library entry C      S cc-pVTZ-F12          selected for orbital group  1
 Library entry C      P cc-pVTZ-F12          selected for orbital group  1
 Library entry C      D cc-pVTZ-F12          selected for orbital group  1
 Library entry C      F cc-pVTZ-F12          selected for orbital group  1
 Library entry O      S cc-pVTZ-F12          selected for orbital group  2
 Library entry O      P cc-pVTZ-F12          selected for orbital group  2
 Library entry O      D cc-pVTZ-F12          selected for orbital group  2
 Library entry O      F cc-pVTZ-F12          selected for orbital group  2
 Library entry H      S cc-pVTZ-F12          selected for orbital group  3
 Library entry H      P cc-pVTZ-F12          selected for orbital group  3
 Library entry H      D cc-pVTZ-F12          selected for orbital group  3


 PROGRAM * SEWARD (Integral evaluation for generally contracted gaussian basis sets)     Author: Roland Lindh, 1990

 Geometry written to block  1 of record 700

 Orientation using atomic masses  
 Molecule type: Asymmetric top
 Symmetry elements: X
 Rotational constants:      23.9141725     24.7356561    129.4600525 GHz  (calculated with average atomic masses)

 Point group  Cs  



 ATOMIC COORDINATES

 NR  ATOM    CHARGE       X              Y              Z

   1  C       6.00    0.000000000    0.025838521   -1.374994233
   2  O       8.00    0.000000000   -0.123854297    1.305708510
   3  H       1.00    0.000000000    1.566313857    1.965542020
   4  H1      1.00    1.684053272    0.983745908   -2.083895772
   5  H3      1.00   -1.684053272    0.983745908   -2.083895772
   6  H2      1.00    0.000000000   -1.875722879   -2.138779696

 Bond lengths in Bohr (Angstrom)

 1-2  2.684878979  1-4  2.063047110  1-5  2.063047110  1-6  2.049220337  2-3  1.814400356
     ( 1.420776770)     ( 1.091717516)     ( 1.091717516)     ( 1.084400703)     ( 0.960139320)

 Bond angles

  1-2-3  108.12930637   2-1-4  111.65221523   2-1-5  111.65221523   2-1-6  108.68733878

  4-1-5  109.43105099   4-1-6  107.62503365   5-1-6  107.62503365

 NUCLEAR CHARGE:                   18
 NUMBER OF PRIMITIVE AOS:         228
 NUMBER OF SYMMETRY AOS:          206
 NUMBER OF CONTRACTIONS:          178   (  114A'  +   64A"  )
 NUMBER OF INNER CORE ORBITALS:     0   (    0A'  +    0A"  )
 NUMBER OF OUTER CORE ORBITALS:     2   (    2A'  +    0A"  )
 NUMBER OF VALENCE ORBITALS:       12   (    9A'  +    3A"  )


 NUCLEAR REPULSION ENERGY   40.32830029

 Eigenvalues of metric

         1 0.880E-04 0.185E-03 0.309E-03 0.460E-03 0.493E-03 0.560E-03 0.618E-03 0.621E-03
         2 0.324E-03 0.570E-03 0.686E-03 0.179E-02 0.342E-02 0.493E-02 0.626E-02 0.870E-02


 Contracted 2-electron integrals neglected if value below      1.0D-11
 AO integral compression algorithm  1   Integral accuracy      1.0D-11

     331.612 MB (compressed) written to integral file ( 53.5%)


 NUMBER OF SORTED TWO-ELECTRON INTEGRALS:   64554730.     BUFFER LENGTH:  32768
 NUMBER OF SEGMENTS:   5  SEGMENT LENGTH:   15997996      RECORD LENGTH: 524288

 Memory used in sort:      16.56 MW

 SORT1 READ    77497885. AND WROTE    63551655. INTEGRALS IN    184 RECORDS. CPU TIME:     1.75 SEC, REAL TIME:    27.70 SEC
 SORT2 READ    63551655. AND WROTE    64554730. INTEGRALS IN   1265 RECORDS. CPU TIME:     1.26 SEC, REAL TIME:    31.58 SEC

 FILE SIZES:   FILE 1:   362.5 MBYTE,  FILE 4:   771.8 MBYTE,   TOTAL:   1134.3 MBYTE

 OPERATOR DM      FOR CENTER  0  COORDINATES:    0.000000    0.000000    0.000000


 **********************************************************************************************************************************
 DATASETS  * FILE   NREC   LENGTH (MB)   RECORD NAMES
              1      19      311.85       500      610      700      900      950      970     1000      129      960     1100   
                                          VAR    BASINP    GEOM    SYMINP    ZMAT    AOBASIS   BASIS     P2S    ABASIS      S 
                                         1400     1410     1200     1210     1080     1600     1650     1300     1700   
                                           T        V       H0       H01     AOSYM     SMH    MOLCAS    ERIS     OPER   

 PROGRAMS   *        TOTAL       INT
 CPU TIMES  *         6.68      6.56
 REAL TIME  *        85.70 SEC
 DISK USED  *         1.13 GB
 **********************************************************************************************************************************


 PROGRAM * RHF-SCF (CLOSED SHELL)       Authors: W. Meyer, H.-J. Werner


 NUMBER OF ELECTRONS:       9+    9-
 CONVERGENCE THRESHOLDS:    1.00E-05 (Density)    1.00E-07 (Energy)
 MAX. NUMBER OF ITERATIONS:       60
 INTERPOLATION TYPE:            DIIS
 INTERPOLATION STEPS:              2 (START)      1 (STEP)
 LEVEL SHIFTS:                  0.00 (CLOSED)  0.00 (OPEN) 



 Orbital guess generated from atomic densities. Full valence occupancy:   11   3

 Molecular orbital dump at record        2100.2

 Initial occupancy:   7   2

 ITERATION    DDIFF          GRAD             ENERGY        2-EL.EN.            DIPOLE MOMENTS         DIIS   ORB.
    1      0.000D+00      0.000D+00      -115.06237353    164.438424    0.00000    0.90172   -0.47955    0    start
    2      0.000D+00      0.667D-02      -115.09067106    161.867265    0.00000    0.49723   -0.30573    1    diag
    3      0.652D-02      0.364D-02      -115.09808745    163.125474    0.00000    0.59939   -0.39805    2    diag
    4      0.221D-02      0.721D-03      -115.09861968    162.948551    0.00000    0.59422   -0.39327    3    diag
    5      0.594D-03      0.145D-03      -115.09865400    162.959949    0.00000    0.59023   -0.39799    4    diag
    6      0.166D-03      0.270D-04      -115.09865555    162.957763    0.00000    0.59038   -0.39873    5    diag
    7      0.476D-04      0.571D-05      -115.09865562    162.957359    0.00000    0.59020   -0.39900    6    diag
    8      0.119D-04      0.151D-05      -115.09865563    162.957718    0.00000    0.59018   -0.39902    7    diag
    9      0.237D-05      0.476D-06      -115.09865563    162.957551    0.00000    0.59016   -0.39903    0    orth

 Final occupancy:   7   2

 !RHF STATE  1.1 Energy              -115.098655628353
 Nuclear energy                        40.32830029
 One-electron energy                 -236.90573149
 Two-electron energy                   81.47877557
 Virial quotient                       -1.00104669
 !RHF STATE  1.1 Dipole moment          0.00000000     0.59016496    -0.39902613
 Dipole moment /Debye                   0.00000000     1.49995145    -1.01415684

 Orbital energies:

         1.1          2.1          3.1          4.1          5.1          6.1          7.1          8.1          9.1
    -20.556818   -11.269878    -1.357051    -0.926792    -0.690208    -0.596151    -0.503244     0.054649     0.064869

         1.2          2.2          3.2          4.2
     -0.621596    -0.452353     0.073809     0.181442


 HOMO      2.2    -0.452353 =     -12.3092eV
 LUMO      8.1     0.054649 =       1.4871eV
 LUMO-HOMO         0.507002 =      13.7962eV


 **********************************************************************************************************************************
 DATASETS  * FILE   NREC   LENGTH (MB)   RECORD NAMES
              1      19      311.85       500      610      700      900      950      970     1000      129      960     1100   
                                          VAR    BASINP    GEOM    SYMINP    ZMAT    AOBASIS   BASIS     P2S    ABASIS      S 
                                         1400     1410     1200     1210     1080     1600     1650     1300     1700   
                                           T        V       H0       H01     AOSYM     SMH    MOLCAS    ERIS     OPER   

              2       4        3.18       700     1000      520     2100   
                                         GEOM     BASIS   MCVARS     RHF  

 PROGRAMS   *        TOTAL    HF-SCF       INT
 CPU TIMES  *         9.68      3.00      6.56
 REAL TIME  *        90.93 SEC
 DISK USED  *         1.13 GB
 **********************************************************************************************************************************


 PROGRAM * MP2 (Closed-shell)     Authors: C. Hampel, H.-J. Werner, 1991, M. Deegan, P.J. Knowles, 1992

                                   MP2-F12 implementation by H.-J. Werner, 2007

                   Density fitting integral evaluation by F.R. Manby, 2003,2007, G. Knizia, 2010


 Basis set AUG-CC-PVTZ/JKFIT generated.  Number of basis functions:   392 
 Basis set CC-PVTZ-F12/OPTRI generated.  Number of basis functions:   314 
 Basis set AUG-CC-PVTZ/MP2FIT generated. Number of basis functions:   396 

 Convergence thresholds:  THRVAR = 1.00D-08  THRDEN = 1.00D-06

 Number of core orbitals:           2 (   2   0 )
 Number of closed-shell orbitals:   7 (   5   2 )
 Number of external orbitals:     169 ( 107  62 )

 Molecular orbitals read from record     2100.2  Type=RHF/CANONICAL (state 1.1)

 MP2-F12 correlation treatment (H.-J. Werner, 2006)
 ==================================================

 Using MP2-F12 with ansatz 3C(FIX)

 Using projected zeroth-order Hamiltonian (+Z)

 FOCKRIB=T FOCKRIC=T FOCKRIP=T CABSP=T CABSA=T CABSK=T CABSF=T GBC=F EBC=F DMAT=T NOFIK=T NOPAO=1 SOLVE=-1  USEPAO=0
 EXCH_A= T EXCH_B= F EXCH_C= F EXCH_P= F

 Geminal basis:    OPTFULL  GEM_TYPE=SLATER  BETA=1.0  NGEM=6

 Optimizing Gaussian exponents for each gem_beta

 Geminal optimization for beta= 1.0000
 Weight function:   m=0, omega= 1.4646

 Augmented Hessian optimization of geminal fit. Trust ratio= 0.40000
 Convergence reached after   2 iterations. Final gradient= 8.66D-16, Step= 4.23D-06, Delta= 1.28D-09

 Alpha:                 0.19532     0.81920     2.85917     9.50073    35.69989   197.79328
 Coeff:                 0.27070     0.30552     0.18297     0.10986     0.06810     0.04224


 Symmetry turned off. Reference energy:       -115.098655628353

 All pairs explicitly correlated. Number of r12-pairs:           28

 Excluding core orbitals from MO domains

 AO(A)-basis ORBITAL           loaded. Number of functions:     178
 RI(R)-basis CC-PVTZ-F12/OPTRI loaded. Number of functions:     314
 DF-basis AUG-CC-PVTZ/JKFIT    loaded. Number of functions:     392

 Screening thresholds:   THRAO=  1.00D-10  THRMO=  1.00D-09  THRPROD=  1.00D-09
                         THRSW=  1.00D-05  THROV=  1.00D-12  THRAOF12= 1.00D-08

 CPU time for Fock operators                      5.54 sec

 Construction of ABS:
 Smallest eigenvalue of S          4.34E-04  (threshold= 1.00E-08)
 Ratio eigmin/eigmax               5.55E-05  (threshold= 1.00E-09)
 Smallest eigenvalue of S kept     4.34E-04  (threshold= 4.34E-04, 0 functions deleted, 314 kept)

 Construction of CABS:
 Smallest eigenvalue of S          7.24E-07  (threshold= 1.00E-08)
 Ratio eigmin/eigmax               7.24E-07  (threshold= 1.00E-09)
 Smallest eigenvalue of S kept     7.24E-07  (threshold= 7.24E-07, 0 functions deleted, 314 kept)

 CPU time for CABS singles                        0.04 sec

 CABS-singles contribution of  -0.00135483 patched into reference energy.
 New reference energy        -115.10001046

 AO(A)-basis ORBITAL           loaded. Number of functions:     178
 RI(R)-basis CC-PVTZ-F12/OPTRI loaded. Number of functions:     314
 DF-basis AUG-CC-PVTZ/MP2FIT   loaded. Number of functions:     396

 Screening thresholds:   THRAO=  1.00D-10  THRMO=  1.00D-09  THRPROD=  1.00D-09
                         THRSW=  1.00D-05  THROV=  1.00D-12  THRAOF12= 1.00D-08

 CPU time for 3-index integral evaluation         3.55 sec
 CPU time for first  half transformation          0.27 sec ( 9144.6 MFLOP/sec)
 CPU time for second half transformation          0.03 sec ( 2072.3 MFLOP/sec)
 CPU time for sorting                             0.01 sec
 CPU time for fitting                             0.03 sec (37980.8 MFLOP/sec)
 CPU time for tilde quantities                    0.03 sec (50348.4 MFLOP/sec)
 CPU time for assembly                            0.19 sec (65018.9 MFLOP/sec)
 CPU time for tranop_f12                          0.28 sec (56643.7 MFLOP/sec)
 CPU time for f12 integrals (total)               7.38 sec, Elapsed time:      7.88 sec
 CPU time for f12 matrices (total)                0.11 sec, Elapsed time:      0.14 sec

 Diagonal F12 approximation with fixed coefficients:  TSING= 0.500,  TTRIP= 0.250 (scaled by -1/beta)

 DF-MP2-F12 energy corrections:
 ==============================
 Approx.                                    Singlet             Triplet             Total
 DF-MP2-F12/3*C(DX,FIX)                -0.038284087062     -0.004211247682     -0.042495334744
 DF-MP2-F12/3*C(FIX)                   -0.036086451154     -0.003929524124     -0.040015975278
 DF-MP2-F12/3C(FIX)                    -0.036028937619     -0.004064367909     -0.040093305529

 DF-MP2-F12 correlation energies:
 ================================
 Approx.                                    Singlet             Triplet             Ecorr            Total Energy
 DF-MP2                                -0.291074451529     -0.152357770173     -0.443432221702   -115.543442683942
 DF-MP2-F12/3*C(DX,FIX)                -0.329358538591     -0.156569017854     -0.485927556445   -115.585938018686
 DF-MP2-F12/3*C(FIX)                   -0.327160902683     -0.156287294296     -0.483448196979   -115.583458659220
 DF-MP2-F12/3C(FIX)                    -0.327103389148     -0.156422138082     -0.483525527230   -115.583535989471

 SCS-DF-MP2 energies (F_SING= 1.20000  F_TRIP= 0.62222  F_PARALLEL= 0.33333):
 ============================================================================
 SCS-DF-MP2                            -0.444089732164   -115.544100194405
 SCS-DF-MP2-F12/3*C(DX,FIX)            -0.492650968530   -115.592661430770
 SCS-DF-MP2-F12/3*C(FIX)               -0.489838510782   -115.589848973022
 SCS-DF-MP2-F12/3C(FIX)                -0.489853397340   -115.589863859580

 Symmetry restored.
 Symmetry transformation completed.

 Number of N-1 electron functions:               7
 Number of N-2 electron functions:              28
 Number of singly external CSFs:               659
 Number of doubly external CSFs:            355020
 Total number of CSFs:                      355680

 Length of J-op  integral file:             103.49 MB
 Length of K-op  integral file:             127.95 MB

 Integral transformation finished. Total CPU:   0.49 sec, npass=  1  Memory used:   0.67 MW

 ITER.      SQ.NORM     CORR.ENERGY   TOTAL ENERGY   ENERGY CHANGE     VAR   MIC
   1      1.00000000    -0.44349863  -115.54350909    -0.44349863  0.00D+00   0
   2      1.11473121    -0.44349863  -115.54350909     0.00000000 -0.78D-19   0

 Solving MP2-F12 equations

   1      1.11469478    -0.48283412  -115.58284459    -0.03933550 -0.37D-04   0
   2      1.11469478    -0.48359054  -115.58360100    -0.00075642  0.10D-19   0
   3      1.11469478    -0.48359054  -115.58360100     0.00000000  0.29D-19   0

 CPU TIME FOR ITERATIVE MP2:    0.04 SEC


 MP2-F12 energy corrections:
 ===========================
 Approx.                                    Singlet             Triplet             Total
 MP2-F12/3*C(DX,FIX)                   -0.038284087062     -0.004211247682     -0.042495334744
 MP2-F12/3*C(FIX)                      -0.036086451154     -0.003929524124     -0.040015975278
 MP2-F12/3C(FIX)                       -0.036026246126     -0.004065668602     -0.040091914728

 MP2-F12 correlation energies:
 =============================
 Approx.                                    Singlet             Triplet             Ecorr            Total Energy
 MP2                                   -0.291257756859     -0.152240870439     -0.443498627298   -115.543509089538
 MP2-F12/3*C(DX,FIX)                   -0.329541843921     -0.156452118121     -0.485993962041   -115.586004424282
 MP2-F12/3*C(FIX)                      -0.327344208013     -0.156170394563     -0.483514602576   -115.583525064816
 MP2-F12/3C(FIX)                       -0.327284002985     -0.156306539041     -0.483590542026   -115.583601004266

 SCS-MP2 energies (F_SING= 1.20000  F_TRIP= 0.62222  F_PARALLEL= 0.33333):
 =========================================================================
 SCS-MP2                               -0.444236960948   -115.544247423188
 SCS-MP2-F12/3*C(DX,FIX)               -0.492798197313   -115.592808659554
 SCS-MP2-F12/3*C(FIX)                  -0.489985739566   -115.589996201806
 SCS-MP2-F12/3C(FIX)                   -0.489998205652   -115.590008667892


  Reference energy                   -115.098655628353
  F12 singles correction               -0.001354833888

 F12 singles corrections added to reference energy

  New reference energy               -115.100010462240

  F12/3C(F) singlet correction         -0.036026246126
  F12/3C(F) triplet correction         -0.004065668602
  F12/3C(F) total correction           -0.040091914728
  MP2-F12/3C(F) singlet pair energy    -0.327284002985
  MP2-F12/3C(F) triplet pair energy    -0.156306539041
  MP2-F12/3C(F) correlation energy     -0.483590542026

 !MP2-F12/3C(F) total energy         -115.583601004266


 **********************************************************************************************************************************
 DATASETS  * FILE   NREC   LENGTH (MB)   RECORD NAMES
              1      20      317.59       500      610      700      900      950      970     1000      129      960     1100   
                                          VAR    BASINP    GEOM    SYMINP    ZMAT    AOBASIS   BASIS     P2S    ABASIS      S 
                                         1400     1410     1200     1210     1080     1600     1650     1300     1700     1380   
                                           T        V       H0       H01     AOSYM     SMH    MOLCAS    ERIS     OPER     JKOP   

              2       7        3.55       700     1000      520     2100     7360     7350     7000   
                                         GEOM     BASIS   MCVARS     RHF    F12ABS    EF12   

 PROGRAMS   *        TOTAL   MP2-F12    HF-SCF       INT
 CPU TIMES  *        23.49     13.80      3.00      6.56
 REAL TIME  *       106.53 SEC
 DISK USED  *         1.13 GB
 **********************************************************************************************************************************


 PROGRAM * CCSD (Closed-shell coupled cluster)     Authors: C. Hampel, H.-J. Werner, 1991, M. Deegan, P.J. Knowles, 1992

                                  CCSD-F12 implementation by  H.-J. Werner, 2007

                   Density fitting integral evaluation by F.R. Manby, 2003,2007, G. Knizia, 2010



 Convergence thresholds:  THRVAR = 1.00D-08  THRDEN = 1.00D-06

 CCSD(T)     terms to be evaluated (factor= 1.000)


 Number of core orbitals:           2 (   2   0 )
 Number of closed-shell orbitals:   7 (   5   2 )
 Number of external orbitals:     169 ( 107  62 )

 Molecular orbitals read from record     2100.2  Type=RHF/CANONICAL (state 1.1)

 MP2-F12 correlation treatment (H.-J. Werner, 2006)
 ==================================================

 Using MP2-F12 with ansatz 3C(FIX)

 Using projected zeroth-order Hamiltonian (+Z)

 FOCKRIB=T FOCKRIC=T FOCKRIP=T CABSP=T CABSA=T CABSK=T CABSF=T GBC=F EBC=F DMAT=T NOFIK=T NOPAO=1 SOLVE=-1  USEPAO=0
 EXCH_A= T EXCH_B= F EXCH_C= F EXCH_P= F

 Geminal basis:    OPTFULL  GEM_TYPE=SLATER  BETA=1.0  NGEM=6

 Optimizing Gaussian exponents for each gem_beta

 Geminal optimization for beta= 1.0000
 Weight function:   m=0, omega= 1.4646

 Augmented Hessian optimization of geminal fit. Trust ratio= 0.40000
 Convergence reached after   2 iterations. Final gradient= 8.66D-16, Step= 4.23D-06, Delta= 1.28D-09

 Alpha:                 0.19532     0.81920     2.85917     9.50073    35.69989   197.79328
 Coeff:                 0.27070     0.30552     0.18297     0.10986     0.06810     0.04224


 Symmetry turned off. Reference energy:       -115.098655628353

 All pairs explicitly correlated. Number of r12-pairs:           28

 Excluding core orbitals from MO domains

 AO(A)-basis ORBITAL           loaded. Number of functions:     178
 RI(R)-basis CC-PVTZ-F12/OPTRI loaded. Number of functions:     314
 DF-basis AUG-CC-PVTZ/JKFIT    loaded. Number of functions:     392

 Screening thresholds:   THRAO=  1.00D-10  THRMO=  1.00D-09  THRPROD=  1.00D-09
                         THRSW=  1.00D-05  THROV=  1.00D-12  THRAOF12= 1.00D-08

 CPU time for Fock operators                      5.41 sec

 Construction of ABS:
 Smallest eigenvalue of S          4.34E-04  (threshold= 1.00E-08)
 Ratio eigmin/eigmax               5.55E-05  (threshold= 1.00E-09)
 Smallest eigenvalue of S kept     4.34E-04  (threshold= 4.34E-04, 0 functions deleted, 314 kept)

 Construction of CABS:
 Smallest eigenvalue of S          7.24E-07  (threshold= 1.00E-08)
 Ratio eigmin/eigmax               7.24E-07  (threshold= 1.00E-09)
 Smallest eigenvalue of S kept     7.24E-07  (threshold= 7.24E-07, 0 functions deleted, 314 kept)

 CPU time for CABS singles                        0.05 sec

 CABS-singles contribution of  -0.00135483 patched into reference energy.
 New reference energy        -115.10001046

 AO(A)-basis ORBITAL           loaded. Number of functions:     178
 RI(R)-basis CC-PVTZ-F12/OPTRI loaded. Number of functions:     314
 DF-basis AUG-CC-PVTZ/MP2FIT   loaded. Number of functions:     396

 Screening thresholds:   THRAO=  1.00D-10  THRMO=  1.00D-09  THRPROD=  1.00D-09
                         THRSW=  1.00D-05  THROV=  1.00D-12  THRAOF12= 1.00D-08

 CPU time for 3-index integral evaluation         3.40 sec
 CPU time for first  half transformation          0.32 sec ( 7715.8 MFLOP/sec)
 CPU time for second half transformation          0.02 sec ( 3108.5 MFLOP/sec)
 CPU time for sorting                             0.01 sec
 CPU time for fitting                             0.02 sec (56971.3 MFLOP/sec)
 CPU time for tilde quantities                    0.01 sec (******* MFLOP/sec)
 CPU time for assembly                            0.23 sec (53711.3 MFLOP/sec)
 CPU time for tranop_f12                          0.30 sec (52867.4 MFLOP/sec)
 CPU time for f12 integrals (total)               7.30 sec, Elapsed time:      7.94 sec
 CPU time for f12 matrices (total)                0.11 sec, Elapsed time:      0.15 sec

 Diagonal F12 approximation with fixed coefficients:  TSING= 0.500,  TTRIP= 0.250 (scaled by -1/beta)

 DF-MP2-F12 energy corrections:
 ==============================
 Approx.                                    Singlet             Triplet             Total
 DF-MP2-F12/3*C(DX,FIX)                -0.038284087062     -0.004211247682     -0.042495334744
 DF-MP2-F12/3*C(FIX)                   -0.036086451154     -0.003929524124     -0.040015975278
 DF-MP2-F12/3C(FIX)                    -0.036028937619     -0.004064367909     -0.040093305529

 DF-MP2-F12 correlation energies:
 ================================
 Approx.                                    Singlet             Triplet             Ecorr            Total Energy
 DF-MP2                                -0.291074451529     -0.152357770173     -0.443432221702   -115.543442683942
 DF-MP2-F12/3*C(DX,FIX)                -0.329358538591     -0.156569017854     -0.485927556445   -115.585938018686
 DF-MP2-F12/3*C(FIX)                   -0.327160902683     -0.156287294296     -0.483448196979   -115.583458659220
 DF-MP2-F12/3C(FIX)                    -0.327103389148     -0.156422138082     -0.483525527230   -115.583535989471

 SCS-DF-MP2 energies (F_SING= 1.20000  F_TRIP= 0.62222  F_PARALLEL= 0.33333):
 ============================================================================
 SCS-DF-MP2                            -0.444089732164   -115.544100194405
 SCS-DF-MP2-F12/3*C(DX,FIX)            -0.492650968530   -115.592661430770
 SCS-DF-MP2-F12/3*C(FIX)               -0.489838510782   -115.589848973022
 SCS-DF-MP2-F12/3C(FIX)                -0.489853397340   -115.589863859580

 Symmetry restored.
 Symmetry transformation completed.

 Number of N-1 electron functions:               7
 Number of N-2 electron functions:              28
 Number of singly external CSFs:               659
 Number of doubly external CSFs:            355020
 Total number of CSFs:                      355680

 Length of J-op  integral file:             103.62 MB
 Length of K-op  integral file:             127.95 MB
 Length of 3-ext integral record:             0.00 MB

 Memory could be reduced to 24.20 Mwords without degradation in triples

 Integral transformation finished. Total CPU:   1.42 sec, npass=  1  Memory used:   7.45 MW

 Reference energy:                   -115.10001046

 Adding F12 terms to K(Cij), methodcc=6,  factor= 1.0

 ITER.      SQ.NORM     CORR.ENERGY   TOTAL ENERGY   ENERGY CHANGE        DEN1      VAR(S)    VAR(P)  DIIS     TIME  TIME/IT
   1      1.11763450    -0.45284543  -115.55285589    -0.00934680     0.00164602  0.15D-02  0.19D-02  1  1    15.28     0.96
   2      1.12503983    -0.45320900  -115.55321946    -0.00036357    -0.00904019  0.24D-04  0.23D-03  2  2    16.19     0.99
   3      1.12776903    -0.45338654  -115.55339700    -0.00017754    -0.00186524  0.15D-04  0.13D-04  3  3    17.12     1.00
   4      1.12871573    -0.45340453  -115.55341500    -0.00001799    -0.00059973  0.87D-06  0.12D-05  4  4    18.02     1.01
   5      1.12887128    -0.45340608  -115.55341654    -0.00000155    -0.00003790  0.23D-06  0.10D-06  5  5    18.95     1.02
   6      1.12891386    -0.45340374  -115.55341420     0.00000234    -0.00000425  0.36D-07  0.96D-08  6  6    19.86     1.02
   7      1.12892501    -0.45340287  -115.55341333     0.00000087    -0.00000300  0.40D-08  0.14D-08  6  1    20.80     1.02
   8      1.12892680    -0.45340293  -115.55341339    -0.00000006     0.00000034  0.67D-09  0.20D-09  6  3    21.71     1.02

 Norm of t1 vector:      0.04999628      S-energy:    -0.00000036      T1 diagnostic:  0.00944841
                                                                       D1 diagnostic:  0.02000921

 Adding energy correction from Wij-K(Fij), methodcc=6  factor= 1.0

  CCSD correlation energy              -0.453402930698
  MP2-F12 correction (uncoupled)       -0.038542713516
  C*T doubles correction               -0.001164217868
  f12b correction                       0.007098124984


 Total CPU time for triples:     13.31 sec


 RESULTS
 =======

  Reference energy                   -115.098655628353
  F12 singles correction               -0.001354833888

 F12 singles corrections added to reference energy

  New reference energy               -115.100010462240

  F12a singlet correction              -0.035789712294
  F12a triplet correction              -0.003917219090
  F12a total correction                -0.039706931384

 F12a corrections for ansatz F12/3C(FIX) added to CCSD energy

  CCSD-F12a singlet pair energy        -0.351188688044
  CCSD-F12a triplet pair energy        -0.141920810323
  CCSD-F12a correlation energy         -0.493109862082

  Triples (T) contribution             -0.016012688342
  Total correlation energy             -0.509122550424

  CCSD-F12a total energy             -115.593120324322
  CCSD[T]-F12a energy                -115.609685460216
  CCSD-T-F12a energy                 -115.608889609987
 !CCSD(T)-F12a total energy          -115.609133012664

 F12b corrections for ansatz F12/3C(FIX) added to CCSD(T)-F12a energy

  CCSD-F12b singlet pair energy        -0.344552545760
  CCSD-F12b triplet pair energy        -0.141458827624
  CCSD-F12b correlation energy         -0.486011737098

  Triples (T) contribution             -0.016012688342
  Total correlation energy             -0.502024425440

  CCSD-F12b total energy             -115.586022199338
  CCSD[T]-F12b energy                -115.602587335232
  CCSD-T-F12b energy                 -115.601791485003
 !CCSD(T)-F12b total energy          -115.602034887681

 Timing summary (sec):

 STEP                 CPU(USER)    SYS     CPU(TOT)    WALL
 Transformation          1.43      0.17      1.60      1.61
 CCSD iterations         7.34      0.85      8.19      8.24
 Triples                13.31      0.52     13.83     13.86
 MP2-F12                12.95      0.78     13.73     14.02
 F12b energy             0.72      0.06      0.78      0.79

 Program statistics:

 Available memory in ccsd:               499999650
 Min. memory needed in ccsd:               1149135
 Max. memory used in ccsd:                 1443104
 Max. memory used in cckext:               1888566 ( 9 integral passes)



 **********************************************************************************************************************************
 DATASETS  * FILE   NREC   LENGTH (MB)   RECORD NAMES
              1      20      386.16       500      610      700      900      950      970     1000      129      960     1100   
                                          VAR    BASINP    GEOM    SYMINP    ZMAT    AOBASIS   BASIS     P2S    ABASIS      S 
                                         1400     1410     1200     1210     1080     1600     1650     1300     1700     1380   
                                           T        V       H0       H01     AOSYM     SMH    MOLCAS    ERIS     OPER     JKOP   

              2       7        3.55       700     1000      520     2100     7360     7350     7000   
                                         GEOM     BASIS   MCVARS     RHF    F12ABS    EF12   

 PROGRAMS   *        TOTAL   CCSD(T)   MP2-F12    HF-SCF       INT
 CPU TIMES  *        59.27     35.78     13.80      3.00      6.56
 REAL TIME  *       145.13 SEC
 DISK USED  *         1.13 GB
 **********************************************************************************************************************************
 SETTING XXX            =    "MMM"
 SETTING POINT          =        84.00000000                                  

 *** ### CH3OH


 XXX       RCO          ROH          RCH1         RCH2         RCH3           ACOH           AOCH1          AOCH2          AOCH3         AHH1           AHH2           AHH3            ENERGY       POINT
 "MMM"   1.42077677   0.96013932   1.09171752   1.08440070   1.09171752   108.12930637   111.65221523   108.68733878   111.65221523   61.43364279   180.00000000   298.56635721   -115.60913301   84.0000
                                                  

 CCSD(T)-F12/cc-pVTZ-F12 energy=   -115.602034887681

     CCSD(T)-F12         MP2-F12          HF-SCF
   -115.60203489   -115.58360100   -115.09865563
 **********************************************************************************************************************************
 Molpro calculation terminated
