
 Primary working directories    : /tmpdir/job/2955664.undefined/molpro.0EXZBY94ap
 Secondary working directories  : /tmpdir/job/2955664.undefined/molpro.0EXZBY94ap
 Wavefunction directory         : /home/zcaposm/wfu/
 Main file repository           : /tmpdir/job/2955664.undefined/molpro.0EXZBY94ap/

 id        : uclcc

 Nodes                         nprocs
 node-d00a-043.myriad.ucl.ac.uk    1

 Using customized tuning parameters: mindgm=1; mindgv=20; mindgc=4; mindgr=1; noblas=0; minvec=7
 default implementation of scratch files=df  


 Variables initialized (945), CPU time= 0.00 sec
 ***,Methanol Ground State Energy with CCSD(T)-F12 and cc-pVTZ-F12
 memory,500,m;
 
 geometry={angstrom
 c
 o , 1, rco
 h , 2, roh, 1, acoh
 h1, 1, rch1, 2, aoch1  3  ahh1
 h2, 1, rch2, 2, aoch2, 3, ahh2
 h3, 1, rch3, 2, aoch3, 3, ahh3
 }
 
                                                ! Specify the initial values of the internal coordinates (in Angstroms and degrees)
 
 rco= 1.42077677
 roh= 0.96013932
 rch1= 1.091717515605
 rch2= 1.08440070258
 rch3= 1.091717515605
 acoh= 108.12930637
 aoch1= 111.6522152299
 aoch2= 107.18733878260001
 aoch3= 111.6522152299
 ahh1=61.433642790000015
 ahh2=179.4896896369202
 ahh3=299.0766675730798
 
                                                                                 ! Use the cc-pVTZ-F12 basis set
 basis=cc-pVTZ-F12
 
 hf
 
                                                                                 ! Use explicitly correlated F12 methods
                                                                            ! First, MP2-F12 (useful for initial electronic energy)
 {mp2-f12}
 
                                                                        ! If desired, perform CCSD(T)-F12 for more accurate results
 {ccsd(t)-f12}
 
                                                                                 ! Output the energy
 xxx = "mmm"
 point = 94
 text ### CH3OH
 table,xxx,rco,roh,rch1,rch2,rch3,acoh,aoch1,aoch2,aoch3,ahh1,ahh2,ahh3,energy,point
 DIGITS, 0, 8, 8, 8, 8, 8, 8, 8, 8, 8,  8,  8,  8, 8, 4
 save,CH3OH_MEP_MP2_94.dat,new
 
 Commands  initialized (802), CPU time= 0.01 sec, 659 directives.
 Default parameters read. Elapsed time= 0.10 sec

 Checking input...
 Passed
1


                                         ***  PROGRAM SYSTEM MOLPRO  ***
                                       Copyright, TTI GmbH Stuttgart, 2015
                                    Version 2020.1 linked Oct  6 2020 12:04:11


 **********************************************************************************************************************************
 LABEL *   Methanol Ground State Energy with CCSD(T)-F12 and cc-pVTZ-F12                 
  64 bit serial version                                                                  DATE: 08-Oct-24          TIME: 17:30:41  
 **********************************************************************************************************************************

 SHA1:             8c27446f6450a7499e38f603e13c65f775101d37
 **********************************************************************************************************************************

 Memory per process:       500 MW
 Total memory per node:    500 MW

 GA preallocation disabled
 GA check disabled

 Variable memory set to 500.0 MW

 SETTING RCO            =         1.42077677                                  
 SETTING ROH            =         0.96013932                                  
 SETTING RCH1           =         1.09171752                                  
 SETTING RCH2           =         1.08440070                                  
 SETTING RCH3           =         1.09171752                                  
 SETTING ACOH           =       108.12930637                                  
 SETTING AOCH1          =       111.65221523                                  
 SETTING AOCH2          =       107.18733878                                  
 SETTING AOCH3          =       111.65221523                                  
 SETTING AHH1           =        61.43364279                                  
 SETTING AHH2           =       179.48968964                                  
 SETTING AHH3           =       299.07666757                                  
 SETTING BASIS          =    CC-PVTZ-F12


 Recomputing integrals since basis changed


 Using spherical harmonics

 Library entry C      S cc-pVTZ-F12          selected for orbital group  1
 Library entry C      P cc-pVTZ-F12          selected for orbital group  1
 Library entry C      D cc-pVTZ-F12          selected for orbital group  1
 Library entry C      F cc-pVTZ-F12          selected for orbital group  1
 Library entry O      S cc-pVTZ-F12          selected for orbital group  2
 Library entry O      P cc-pVTZ-F12          selected for orbital group  2
 Library entry O      D cc-pVTZ-F12          selected for orbital group  2
 Library entry O      F cc-pVTZ-F12          selected for orbital group  2
 Library entry H      S cc-pVTZ-F12          selected for orbital group  3
 Library entry H      P cc-pVTZ-F12          selected for orbital group  3
 Library entry H      D cc-pVTZ-F12          selected for orbital group  3


 PROGRAM * SEWARD (Integral evaluation for generally contracted gaussian basis sets)     Author: Roland Lindh, 1990

 Geometry written to block  1 of record 700

 Orientation using atomic masses  
 Molecule type: Asymmetric top
 Rotational constants:      23.9499513     24.8190869    128.7645285 GHz  (calculated with average atomic masses)

 Point group  C1  



 ATOMIC COORDINATES

 NR  ATOM    CHARGE       X              Y              Z

   1  C       6.00   -0.001591236    0.024026785   -1.376629357
   2  O       8.00   -0.001959791   -0.121824729    1.304285102
   3  H       1.00    0.030971525    1.568971407    1.961683466
   4  H1      1.00    1.699810014    0.948546714   -2.088429937
   5  H2      1.00   -0.021549976   -1.897794729   -2.087620009
   6  H3      1.00   -1.659161306    1.027732660   -2.084583703

 Bond lengths in Bohr (Angstrom)

 1-2  2.684878979  1-4  2.063047110  1-5  2.049220337  1-6  2.063047110  2-3  1.814400356
     ( 1.420776770)     ( 1.091717516)     ( 1.084400703)     ( 1.091717516)     ( 0.960139320)

 Bond angles

  1-2-3  108.12930637   2-1-4  111.65221523   2-1-5  107.18733878   2-1-6  111.65221523

  4-1-5  107.97470127   4-1-6  109.03776412   5-1-6  109.23132312

 NUCLEAR CHARGE:                   18
 NUMBER OF PRIMITIVE AOS:         228
 NUMBER OF SYMMETRY AOS:          206
 NUMBER OF CONTRACTIONS:          178   (  178A   )
 NUMBER OF INNER CORE ORBITALS:     0   (    0A   )
 NUMBER OF OUTER CORE ORBITALS:     2   (    2A   )
 NUMBER OF VALENCE ORBITALS:       12   (   12A   )


 NUCLEAR REPULSION ENERGY   40.34578777

 Eigenvalues of metric

         1 0.879E-04 0.183E-03 0.309E-03 0.323E-03 0.460E-03 0.493E-03 0.560E-03 0.570E-03


 Contracted 2-electron integrals neglected if value below      1.0D-11
 AO integral compression algorithm  1   Integral accuracy      1.0D-11

     608.698 MB (compressed) written to integral file ( 51.1%)


 NUMBER OF SORTED TWO-ELECTRON INTEGRALS:  126906346.     BUFFER LENGTH:  32768
 NUMBER OF SEGMENTS:   8  SEGMENT LENGTH:   15999503      RECORD LENGTH: 524288

 Memory used in sort:      16.56 MW

 SORT1 READ   149034713. AND WROTE   124761982. INTEGRALS IN    360 RECORDS. CPU TIME:     3.98 SEC, REAL TIME:   146.53 SEC
 SORT2 READ   124761982. AND WROTE   126906346. INTEGRALS IN   2322 RECORDS. CPU TIME:     2.07 SEC, REAL TIME:   355.42 SEC

 FILE SIZES:   FILE 1:   639.9 MBYTE,  FILE 4:  1510.0 MBYTE,   TOTAL:   2149.9 MBYTE

 OPERATOR DM      FOR CENTER  0  COORDINATES:    0.000000    0.000000    0.000000


 **********************************************************************************************************************************
 DATASETS  * FILE   NREC   LENGTH (MB)   RECORD NAMES
              1      19      562.06       500      610      700      900      950      970     1000      129      960     1100   
                                          VAR    BASINP    GEOM    SYMINP    ZMAT    AOBASIS   BASIS     P2S    ABASIS      S 
                                         1400     1410     1200     1210     1080     1600     1650     1300     1700   
                                           T        V       H0       H01     AOSYM     SMH    MOLCAS    ERIS     OPER   

 PROGRAMS   *        TOTAL       INT
 CPU TIMES  *        10.96     10.84
 REAL TIME  *       561.76 SEC
 DISK USED  *         2.15 GB
 **********************************************************************************************************************************


 PROGRAM * RHF-SCF (CLOSED SHELL)       Authors: W. Meyer, H.-J. Werner


 NUMBER OF ELECTRONS:       9+    9-    SPACE SYMMETRY=1    SPIN SYMMETRY: Singlet 
 CONVERGENCE THRESHOLDS:    1.00E-05 (Density)    1.00E-07 (Energy)
 MAX. NUMBER OF ITERATIONS:       60
 INTERPOLATION TYPE:            DIIS
 INTERPOLATION STEPS:              2 (START)      1 (STEP)
 LEVEL SHIFTS:                  0.00 (CLOSED)  0.00 (OPEN) 



 Orbital guess generated from atomic densities. Full valence occupancy:   14

 Molecular orbital dump at record        2100.2

 Initial occupancy:   9

 ITERATION    DDIFF          GRAD             ENERGY        2-EL.EN.            DIPOLE MOMENTS         DIIS   ORB.
    1      0.000D+00      0.000D+00      -115.06235608    164.484340    0.01966    0.90539   -0.47827    0    start
    2      0.000D+00      0.506D-02      -115.09071353    161.902123    0.01084    0.49707   -0.30376    1    diag
    3      0.480D-02      0.277D-02      -115.09820084    163.165567    0.01275    0.60040   -0.39706    2    diag
    4      0.163D-02      0.546D-03      -115.09873340    162.988936    0.01256    0.59524   -0.39251    3    diag
    5      0.436D-03      0.110D-03      -115.09876783    163.000409    0.01244    0.59124   -0.39733    4    diag
    6      0.122D-03      0.205D-04      -115.09876940    162.998198    0.01243    0.59138   -0.39812    5    diag
    7      0.350D-04      0.434D-05      -115.09876947    162.997806    0.01242    0.59119   -0.39839    6    diag
    8      0.877D-05      0.114D-05      -115.09876947    162.998156    0.01242    0.59119   -0.39841    0    orth

 Final occupancy:   9

 !RHF STATE  1.1 Energy              -115.098769471901
 Nuclear energy                        40.34578777
 One-electron energy                 -236.94363543
 Two-electron energy                   81.49907820
 Virial quotient                       -1.00101532
 !RHF STATE  1.1 Dipole moment          0.01242164     0.59118774    -0.39840571
 Dipole moment /Debye                   0.03157060     1.50255093    -1.01257999

 Orbital energies:

         1.1          2.1          3.1          4.1          5.1          6.1          7.1          8.1          9.1         10.1
    -20.556340   -11.269788    -1.356935    -0.926354    -0.691116    -0.621111    -0.594397    -0.504824    -0.451876     0.054592

        11.1
      0.065019


 HOMO      9.1    -0.451876 =     -12.2962eV
 LUMO     10.1     0.054592 =       1.4855eV
 LUMO-HOMO         0.506468 =      13.7817eV


 **********************************************************************************************************************************
 DATASETS  * FILE   NREC   LENGTH (MB)   RECORD NAMES
              1      19      562.06       500      610      700      900      950      970     1000      129      960     1100   
                                          VAR    BASINP    GEOM    SYMINP    ZMAT    AOBASIS   BASIS     P2S    ABASIS      S 
                                         1400     1410     1200     1210     1080     1600     1650     1300     1700   
                                           T        V       H0       H01     AOSYM     SMH    MOLCAS    ERIS     OPER   

              2       4        3.48       700     1000      520     2100   
                                         GEOM     BASIS   MCVARS     RHF  

 PROGRAMS   *        TOTAL    HF-SCF       INT
 CPU TIMES  *        19.49      8.53     10.84
 REAL TIME  *       621.31 SEC
 DISK USED  *         2.15 GB
 **********************************************************************************************************************************


 PROGRAM * MP2 (Closed-shell)     Authors: C. Hampel, H.-J. Werner, 1991, M. Deegan, P.J. Knowles, 1992

                                   MP2-F12 implementation by H.-J. Werner, 2007

                   Density fitting integral evaluation by F.R. Manby, 2003,2007, G. Knizia, 2010


 Basis set AUG-CC-PVTZ/JKFIT generated.  Number of basis functions:   392 
 Basis set CC-PVTZ-F12/OPTRI generated.  Number of basis functions:   314 
 Basis set AUG-CC-PVTZ/MP2FIT generated. Number of basis functions:   396 

 Convergence thresholds:  THRVAR = 1.00D-08  THRDEN = 1.00D-06

 Number of core orbitals:           2 (   2 )
 Number of closed-shell orbitals:   7 (   7 )
 Number of external orbitals:     169 ( 169 )

 Molecular orbitals read from record     2100.2  Type=RHF/CANONICAL (state 1.1)

 MP2-F12 correlation treatment (H.-J. Werner, 2006)
 ==================================================

 Using MP2-F12 with ansatz 3C(FIX)

 Using projected zeroth-order Hamiltonian (+Z)

 FOCKRIB=T FOCKRIC=T FOCKRIP=T CABSP=T CABSA=T CABSK=T CABSF=T GBC=F EBC=F DMAT=T NOFIK=T NOPAO=1 SOLVE=-1  USEPAO=0
 EXCH_A= T EXCH_B= F EXCH_C= F EXCH_P= F

 Geminal basis:    OPTFULL  GEM_TYPE=SLATER  BETA=1.0  NGEM=6

 Optimizing Gaussian exponents for each gem_beta

 Geminal optimization for beta= 1.0000
 Weight function:   m=0, omega= 1.4646

 Augmented Hessian optimization of geminal fit. Trust ratio= 0.40000
 Convergence reached after   2 iterations. Final gradient= 8.66D-16, Step= 4.23D-06, Delta= 1.28D-09

 Alpha:                 0.19532     0.81920     2.85917     9.50073    35.69989   197.79328
 Coeff:                 0.27070     0.30552     0.18297     0.10986     0.06810     0.04224


 All pairs explicitly correlated. Number of r12-pairs:           28

 Excluding core orbitals from MO domains

 AO(A)-basis ORBITAL           loaded. Number of functions:     178
 RI(R)-basis CC-PVTZ-F12/OPTRI loaded. Number of functions:     314
 DF-basis AUG-CC-PVTZ/JKFIT    loaded. Number of functions:     392

 Screening thresholds:   THRAO=  1.00D-10  THRMO=  1.00D-09  THRPROD=  1.00D-09
                         THRSW=  1.00D-05  THROV=  1.00D-12  THRAOF12= 1.00D-08

 CPU time for Fock operators                      1.58 sec

 Construction of ABS:
 Smallest eigenvalue of S          4.33E-04  (threshold= 1.00E-08)
 Ratio eigmin/eigmax               5.53E-05  (threshold= 1.00E-09)
 Smallest eigenvalue of S kept     4.33E-04  (threshold= 4.33E-04, 0 functions deleted, 314 kept)

 Construction of CABS:
 Smallest eigenvalue of S          7.25E-07  (threshold= 1.00E-08)
 Ratio eigmin/eigmax               7.25E-07  (threshold= 1.00E-09)
 Smallest eigenvalue of S kept     7.25E-07  (threshold= 7.25E-07, 0 functions deleted, 314 kept)

 CPU time for CABS singles                        0.04 sec

 CABS-singles contribution of  -0.00135366 patched into reference energy.
 New reference energy        -115.10012313

 AO(A)-basis ORBITAL           loaded. Number of functions:     178
 RI(R)-basis CC-PVTZ-F12/OPTRI loaded. Number of functions:     314
 DF-basis AUG-CC-PVTZ/MP2FIT   loaded. Number of functions:     396

 Screening thresholds:   THRAO=  1.00D-10  THRMO=  1.00D-09  THRPROD=  1.00D-09
                         THRSW=  1.00D-05  THROV=  1.00D-12  THRAOF12= 1.00D-08

 CPU time for 3-index integral evaluation         3.45 sec
 CPU time for first  half transformation          0.28 sec ( 8818.0 MFLOP/sec)
 CPU time for second half transformation          0.03 sec ( 2072.3 MFLOP/sec)
 CPU time for sorting                             0.01 sec
 CPU time for fitting                             0.05 sec (22788.5 MFLOP/sec)
 CPU time for tilde quantities                    0.03 sec (50348.4 MFLOP/sec)
 CPU time for assembly                            0.19 sec (65018.9 MFLOP/sec)
 CPU time for tranop_f12                          0.30 sec (52867.4 MFLOP/sec)
 CPU time for f12 integrals (total)               4.73 sec, Elapsed time:      6.77 sec
 CPU time for f12 matrices (total)                0.11 sec, Elapsed time:      0.52 sec

 Diagonal F12 approximation with fixed coefficients:  TSING= 0.500,  TTRIP= 0.250 (scaled by -1/beta)

 DF-MP2-F12 energy corrections:
 ==============================
 Approx.                                    Singlet             Triplet             Total
 DF-MP2-F12/3*C(DX,FIX)                -0.038287453808     -0.004212624336     -0.042500078144
 DF-MP2-F12/3*C(FIX)                   -0.036088581535     -0.003930881380     -0.040019462915
 DF-MP2-F12/3C(FIX)                    -0.036031310688     -0.004065857357     -0.040097168045

 DF-MP2-F12 correlation energies:
 ================================
 Approx.                                    Singlet             Triplet             Ecorr            Total Energy
 DF-MP2                                -0.291095319307     -0.152361557179     -0.443456876486   -115.543580009884
 DF-MP2-F12/3*C(DX,FIX)                -0.329382773115     -0.156574181516     -0.485956954630   -115.586080088028
 DF-MP2-F12/3*C(FIX)                   -0.327183900842     -0.156292438560     -0.483476339402   -115.583599472799
 DF-MP2-F12/3C(FIX)                    -0.327126629995     -0.156427414537     -0.483554044531   -115.583677177929

 SCS-DF-MP2 energies (F_SING= 1.20000  F_TRIP= 0.62222  F_PARALLEL= 0.33333):
 ============================================================================
 SCS-DF-MP2                            -0.444117129858   -115.544240263256
 SCS-DF-MP2-F12/3*C(DX,FIX)            -0.492683262903   -115.592806396301
 SCS-DF-MP2-F12/3*C(FIX)               -0.489869309448   -115.589992442845
 SCS-DF-MP2-F12/3C(FIX)                -0.489884569483   -115.590007702881
 Symmetry transformation completed.

 Number of N-1 electron functions:               7
 Number of N-2 electron functions:              28
 Number of singly external CSFs:              1183
 Number of doubly external CSFs:            700336
 Total number of CSFs:                      701520

 Length of J-op  integral file:             104.98 MB
 Length of K-op  integral file:             138.67 MB

 Integral transformation finished. Total CPU:   1.42 sec, npass=  1  Memory used:   2.18 MW

 ITER.      SQ.NORM     CORR.ENERGY   TOTAL ENERGY   ENERGY CHANGE     VAR   MIC
   1      1.00000000    -0.44352328  -115.54364641    -0.44352328  0.00D+00   0
   2      1.11473462    -0.44352328  -115.54364641     0.00000000 -0.24D-15   0

 Solving MP2-F12 equations

   1      1.11469830    -0.48286233  -115.58298546    -0.03933906 -0.37D-04   0
   2      1.11469830    -0.48361904  -115.58374217    -0.00075671 -0.43D-17   0
   3      1.11469830    -0.48361904  -115.58374217     0.00000000  0.31D-19   0

 CPU TIME FOR ITERATIVE MP2:    0.12 SEC


 MP2-F12 energy corrections:
 ===========================
 Approx.                                    Singlet             Triplet             Total
 MP2-F12/3*C(DX,FIX)                   -0.038287453808     -0.004212624336     -0.042500078144
 MP2-F12/3*C(FIX)                      -0.036088581535     -0.003930881380     -0.040019462915
 MP2-F12/3C(FIX)                       -0.036028611050     -0.004067153269     -0.040095764318

 MP2-F12 correlation energies:
 =============================
 Approx.                                    Singlet             Triplet             Ecorr            Total Energy
 MP2                                   -0.291278634244     -0.152244641200     -0.443523275444   -115.543646408841
 MP2-F12/3*C(DX,FIX)                   -0.329566088051     -0.156457265536     -0.486023353588   -115.586146486985
 MP2-F12/3*C(FIX)                      -0.327367215778     -0.156175522580     -0.483542738359   -115.583665871756
 MP2-F12/3C(FIX)                       -0.327307245293     -0.156311794469     -0.483619039762   -115.583742173159

 SCS-MP2 energies (F_SING= 1.20000  F_TRIP= 0.62222  F_PARALLEL= 0.33333):
 =========================================================================
 SCS-MP2                               -0.444264360061   -115.544387493459
 SCS-MP2-F12/3*C(DX,FIX)               -0.492830493106   -115.592953626504
 SCS-MP2-F12/3*C(FIX)                  -0.490016539651   -115.590139673048
 SCS-MP2-F12/3C(FIX)                   -0.490029366466   -115.590152499863


  Reference energy                   -115.098769471902
  F12 singles correction               -0.001353661496

 F12 singles corrections added to reference energy

  New reference energy               -115.100123133398

  F12/3C(F) singlet correction         -0.036028611050
  F12/3C(F) triplet correction         -0.004067153269
  F12/3C(F) total correction           -0.040095764318
  MP2-F12/3C(F) singlet pair energy    -0.327307245293
  MP2-F12/3C(F) triplet pair energy    -0.156311794469
  MP2-F12/3C(F) correlation energy     -0.483619039762

 !MP2-F12/3C(F) total energy         -115.583742173159


 **********************************************************************************************************************************
 DATASETS  * FILE   NREC   LENGTH (MB)   RECORD NAMES
              1      20      573.24       500      610      700      900      950      970     1000      129      960     1100   
                                          VAR    BASINP    GEOM    SYMINP    ZMAT    AOBASIS   BASIS     P2S    ABASIS      S 
                                         1400     1410     1200     1210     1080     1600     1650     1300     1700     1380   
                                           T        V       H0       H01     AOSYM     SMH    MOLCAS    ERIS     OPER     JKOP   

              2       7        4.13       700     1000      520     2100     7360     7350     7000   
                                         GEOM     BASIS   MCVARS     RHF    F12ABS    EF12   

 PROGRAMS   *        TOTAL   MP2-F12    HF-SCF       INT
 CPU TIMES  *        27.72      8.23      8.53     10.84
 REAL TIME  *       635.42 SEC
 DISK USED  *         2.15 GB
 **********************************************************************************************************************************


 PROGRAM * CCSD (Closed-shell coupled cluster)     Authors: C. Hampel, H.-J. Werner, 1991, M. Deegan, P.J. Knowles, 1992

                                  CCSD-F12 implementation by  H.-J. Werner, 2007

                   Density fitting integral evaluation by F.R. Manby, 2003,2007, G. Knizia, 2010



 Convergence thresholds:  THRVAR = 1.00D-08  THRDEN = 1.00D-06

 CCSD(T)     terms to be evaluated (factor= 1.000)


 Number of core orbitals:           2 (   2 )
 Number of closed-shell orbitals:   7 (   7 )
 Number of external orbitals:     169 ( 169 )

 Molecular orbitals read from record     2100.2  Type=RHF/CANONICAL (state 1.1)

 MP2-F12 correlation treatment (H.-J. Werner, 2006)
 ==================================================

 Using MP2-F12 with ansatz 3C(FIX)

 Using projected zeroth-order Hamiltonian (+Z)

 FOCKRIB=T FOCKRIC=T FOCKRIP=T CABSP=T CABSA=T CABSK=T CABSF=T GBC=F EBC=F DMAT=T NOFIK=T NOPAO=1 SOLVE=-1  USEPAO=0
 EXCH_A= T EXCH_B= F EXCH_C= F EXCH_P= F

 Geminal basis:    OPTFULL  GEM_TYPE=SLATER  BETA=1.0  NGEM=6

 Optimizing Gaussian exponents for each gem_beta

 Geminal optimization for beta= 1.0000
 Weight function:   m=0, omega= 1.4646

 Augmented Hessian optimization of geminal fit. Trust ratio= 0.40000
 Convergence reached after   2 iterations. Final gradient= 8.66D-16, Step= 4.23D-06, Delta= 1.28D-09

 Alpha:                 0.19532     0.81920     2.85917     9.50073    35.69989   197.79328
 Coeff:                 0.27070     0.30552     0.18297     0.10986     0.06810     0.04224


 All pairs explicitly correlated. Number of r12-pairs:           28

 Excluding core orbitals from MO domains

 AO(A)-basis ORBITAL           loaded. Number of functions:     178
 RI(R)-basis CC-PVTZ-F12/OPTRI loaded. Number of functions:     314
 DF-basis AUG-CC-PVTZ/JKFIT    loaded. Number of functions:     392

 Screening thresholds:   THRAO=  1.00D-10  THRMO=  1.00D-09  THRPROD=  1.00D-09
                         THRSW=  1.00D-05  THROV=  1.00D-12  THRAOF12= 1.00D-08

 CPU time for Fock operators                      1.58 sec

 Construction of ABS:
 Smallest eigenvalue of S          4.33E-04  (threshold= 1.00E-08)
 Ratio eigmin/eigmax               5.53E-05  (threshold= 1.00E-09)
 Smallest eigenvalue of S kept     4.33E-04  (threshold= 4.33E-04, 0 functions deleted, 314 kept)

 Construction of CABS:
 Smallest eigenvalue of S          7.25E-07  (threshold= 1.00E-08)
 Ratio eigmin/eigmax               7.25E-07  (threshold= 1.00E-09)
 Smallest eigenvalue of S kept     7.25E-07  (threshold= 7.25E-07, 0 functions deleted, 314 kept)

 CPU time for CABS singles                        0.04 sec

 CABS-singles contribution of  -0.00135366 patched into reference energy.
 New reference energy        -115.10012313

 AO(A)-basis ORBITAL           loaded. Number of functions:     178
 RI(R)-basis CC-PVTZ-F12/OPTRI loaded. Number of functions:     314
 DF-basis AUG-CC-PVTZ/MP2FIT   loaded. Number of functions:     396

 Screening thresholds:   THRAO=  1.00D-10  THRMO=  1.00D-09  THRPROD=  1.00D-09
                         THRSW=  1.00D-05  THROV=  1.00D-12  THRAOF12= 1.00D-08

 CPU time for 3-index integral evaluation         3.54 sec
 CPU time for first  half transformation          0.40 sec ( 6172.6 MFLOP/sec)
 CPU time for second half transformation          0.01 sec ( 6217.0 MFLOP/sec)
 CPU time for fitting                             0.02 sec (56971.3 MFLOP/sec)
 CPU time for tilde quantities                    0.01 sec (******* MFLOP/sec)
 CPU time for assembly                            0.24 sec (51473.3 MFLOP/sec)
 CPU time for tranop_f12                          0.25 sec (63440.9 MFLOP/sec)
 CPU time for f12 integrals (total)               4.91 sec, Elapsed time:      5.31 sec
 CPU time for f12 matrices (total)                0.12 sec, Elapsed time:      0.15 sec

 Diagonal F12 approximation with fixed coefficients:  TSING= 0.500,  TTRIP= 0.250 (scaled by -1/beta)

 DF-MP2-F12 energy corrections:
 ==============================
 Approx.                                    Singlet             Triplet             Total
 DF-MP2-F12/3*C(DX,FIX)                -0.038287453808     -0.004212624336     -0.042500078144
 DF-MP2-F12/3*C(FIX)                   -0.036088581535     -0.003930881380     -0.040019462915
 DF-MP2-F12/3C(FIX)                    -0.036031310688     -0.004065857357     -0.040097168045

 DF-MP2-F12 correlation energies:
 ================================
 Approx.                                    Singlet             Triplet             Ecorr            Total Energy
 DF-MP2                                -0.291095319307     -0.152361557179     -0.443456876486   -115.543580009884
 DF-MP2-F12/3*C(DX,FIX)                -0.329382773115     -0.156574181516     -0.485956954630   -115.586080088028
 DF-MP2-F12/3*C(FIX)                   -0.327183900842     -0.156292438560     -0.483476339402   -115.583599472799
 DF-MP2-F12/3C(FIX)                    -0.327126629995     -0.156427414537     -0.483554044531   -115.583677177929

 SCS-DF-MP2 energies (F_SING= 1.20000  F_TRIP= 0.62222  F_PARALLEL= 0.33333):
 ============================================================================
 SCS-DF-MP2                            -0.444117129858   -115.544240263256
 SCS-DF-MP2-F12/3*C(DX,FIX)            -0.492683262903   -115.592806396301
 SCS-DF-MP2-F12/3*C(FIX)               -0.489869309448   -115.589992442845
 SCS-DF-MP2-F12/3C(FIX)                -0.489884569483   -115.590007702881
 Symmetry transformation completed.

 Number of N-1 electron functions:               7
 Number of N-2 electron functions:              28
 Number of singly external CSFs:              1183
 Number of doubly external CSFs:            700336
 Total number of CSFs:                      701520

 Length of J-op  integral file:             105.23 MB
 Length of K-op  integral file:             138.67 MB
 Length of 3-ext integral record:             0.00 MB

 Memory could be reduced to 48.01 Mwords without degradation in triples

 Integral transformation finished. Total CPU:   3.21 sec, npass=  1  Memory used:  24.86 MW

 Reference energy:                   -115.10012313

 Adding F12 terms to K(Cij), methodcc=6,  factor= 1.0

 ITER.      SQ.NORM     CORR.ENERGY   TOTAL ENERGY   ENERGY CHANGE        DEN1      VAR(S)    VAR(P)  DIIS     TIME  TIME/IT
   1      1.11762208    -0.45285655  -115.55297968    -0.00933327     0.00166840  0.15D-02  0.19D-02  1  1    14.31    41.78
   2      1.12503190    -0.45321832  -115.55334146    -0.00036177    -0.00904661  0.24D-04  0.23D-03  2  2    17.71    33.40
   3      1.12776149    -0.45339573  -115.55351887    -0.00017741    -0.00186511  0.15D-04  0.13D-04  3  3    20.51    23.31
   4      1.12870884    -0.45341361  -115.55353674    -0.00001788    -0.00060024  0.86D-06  0.12D-05  4  4    23.38    18.29
   5      1.12886444    -0.45341517  -115.55353830    -0.00000155    -0.00003793  0.23D-06  0.10D-06  5  5    26.31    15.26
   6      1.12890704    -0.45341281  -115.55353594     0.00000235    -0.00000423  0.36D-07  0.96D-08  6  6    29.25    13.25
   7      1.12891817    -0.45341194  -115.55353507     0.00000087    -0.00000299  0.40D-08  0.14D-08  6  1    32.22    11.82
   8      1.12891997    -0.45341200  -115.55353513    -0.00000006     0.00000034  0.67D-09  0.20D-09  6  3    35.18    10.74

 Norm of t1 vector:      0.05001264      S-energy:     0.00000011      T1 diagnostic:  0.00945150
                                                                       D1 diagnostic:  0.02004032

 Adding energy correction from Wij-K(Fij), methodcc=6  factor= 1.0

  CCSD correlation energy              -0.453411997761
  MP2-F12 correction (uncoupled)       -0.038545372666
  C*T doubles correction               -0.001164987692
  f12b correction                       0.007098770062


 Total CPU time for triples:     37.50 sec


 RESULTS
 =======

  Reference energy                   -115.098769471902
  F12 singles correction               -0.001353661496

 F12 singles corrections added to reference energy

  New reference energy               -115.100123133398

  F12a singlet correction              -0.035791803194
  F12a triplet correction              -0.003918557164
  F12a total correction                -0.039710360358

 F12a corrections for ansatz F12/3C(FIX) added to CCSD energy

  CCSD-F12a singlet pair energy        -0.351209304155
  CCSD-F12a triplet pair energy        -0.141913160662
  CCSD-F12a correlation energy         -0.493122358119

  Triples (T) contribution             -0.016014550882
  Total correlation energy             -0.509136909001

  CCSD-F12a total energy             -115.593245491517
  CCSD[T]-F12a energy                -115.609813192731
  CCSD-T-F12a energy                 -115.609016288413
 !CCSD(T)-F12a total energy          -115.609260042398

 F12b corrections for ansatz F12/3C(FIX) added to CCSD(T)-F12a energy

  CCSD-F12b singlet pair energy        -0.344572607509
  CCSD-F12b triplet pair energy        -0.141451087247
  CCSD-F12b correlation energy         -0.486023588057

  Triples (T) contribution             -0.016014550882
  Total correlation energy             -0.502038138939

  CCSD-F12b total energy             -115.586146721455
  CCSD[T]-F12b energy                -115.602714422669
  CCSD-T-F12b energy                 -115.601917518351
 !CCSD(T)-F12b total energy          -115.602161272337

 Timing summary (sec):

 STEP                 CPU(USER)    SYS     CPU(TOT)    WALL
 Transformation          3.26      1.30      4.56     24.79
 CCSD iterations        25.16      3.09     28.25     86.20
 Triples                37.50      1.02     38.52     38.62
 MP2-F12                 6.77      0.47      7.24      7.28
 F12b energy             2.36      0.13      2.49      2.57

 Program statistics:

 Available memory in ccsd:               499999646
 Min. memory needed in ccsd:               2228017
 Max. memory used in ccsd:                 2807120
 Max. memory used in cckext:               2027429 ( 9 integral passes)



 **********************************************************************************************************************************
 DATASETS  * FILE   NREC   LENGTH (MB)   RECORD NAMES
              1      20      709.19       500      610      700      900      950      970     1000      129      960     1100   
                                          VAR    BASINP    GEOM    SYMINP    ZMAT    AOBASIS   BASIS     P2S    ABASIS      S 
                                         1400     1410     1200     1210     1080     1600     1650     1300     1700     1380   
                                           T        V       H0       H01     AOSYM     SMH    MOLCAS    ERIS     OPER     JKOP   

              2       7        4.13       700     1000      520     2100     7360     7350     7000   
                                         GEOM     BASIS   MCVARS     RHF    F12ABS    EF12   

 PROGRAMS   *        TOTAL   CCSD(T)   MP2-F12    HF-SCF       INT
 CPU TIMES  *       102.83     75.10      8.23      8.53     10.84
 REAL TIME  *       795.06 SEC
 DISK USED  *         2.15 GB
 **********************************************************************************************************************************
 SETTING XXX            =    "MMM"
 SETTING POINT          =        94.00000000                                  

 *** ### CH3OH


 XXX       RCO          ROH          RCH1         RCH2         RCH3           ACOH           AOCH1          AOCH2          AOCH3         AHH1           AHH2           AHH3            ENERGY       POINT
 "MMM"   1.42077677   0.96013932   1.09171752   1.08440070   1.09171752   108.12930637   111.65221523   107.18733878   111.65221523   61.43364279   179.48968964   299.07666757   -115.60926004   94.0000
                                                  

 CCSD(T)-F12/cc-pVTZ-F12 energy=   -115.602161272337

     CCSD(T)-F12         MP2-F12          HF-SCF
   -115.60216127   -115.58374217   -115.09876947
 **********************************************************************************************************************************
 Molpro calculation terminated
