
 Primary working directories    : /tmpdir/job/2955679.undefined/molpro.G4E76ok7KU
 Secondary working directories  : /tmpdir/job/2955679.undefined/molpro.G4E76ok7KU
 Wavefunction directory         : /home/zcaposm/wfu/
 Main file repository           : /tmpdir/job/2955679.undefined/molpro.G4E76ok7KU/

 id        : uclcc

 Nodes                         nprocs
 node-d00a-245.myriad.ucl.ac.uk    1

 Using customized tuning parameters: mindgm=1; mindgv=20; mindgc=4; mindgr=1; noblas=0; minvec=7
 default implementation of scratch files=df  


 Variables initialized (945), CPU time= 0.00 sec
 ***,Methanol Ground State Energy with CCSD(T)-F12 and cc-pVTZ-F12
 memory,500,m;
 
 geometry={angstrom
 c
 o , 1, rco
 h , 2, roh, 1, acoh
 h1, 1, rch1, 2, aoch1  3  ahh1
 h2, 1, rch2, 2, aoch2, 3, ahh2
 h3, 1, rch3, 2, aoch3, 3, ahh3
 }
 
                                                ! Specify the initial values of the internal coordinates (in Angstroms and degrees)
 
 rco= 1.42077677
 roh= 0.96013932
 rch1= 1.091717515605
 rch2= 1.08440070258
 rch3= 1.091717515605
 acoh= 108.12930637
 aoch1= 111.6522152299
 aoch2= 107.18733878260001
 aoch3= 111.6522152299
 ahh1=62.14074957118656
 ahh2=179.64644660940672
 ahh3=298.2128038194067
 
                                                                                 ! Use the cc-pVTZ-F12 basis set
 basis=cc-pVTZ-F12
 
 hf
 
                                                                                 ! Use explicitly correlated F12 methods
                                                                            ! First, MP2-F12 (useful for initial electronic energy)
 {mp2-f12}
 
                                                                        ! If desired, perform CCSD(T)-F12 for more accurate results
 {ccsd(t)-f12}
 
                                                                                 ! Output the energy
 xxx = "mmm"
 point = 108
 text ### CH3OH
 table,xxx,rco,roh,rch1,rch2,rch3,acoh,aoch1,aoch2,aoch3,ahh1,ahh2,ahh3,energy,point
 DIGITS, 0, 8, 8, 8, 8, 8, 8, 8, 8, 8,  8,  8,  8, 8, 4
 save,CH3OH_MEP_MP2_108.dat,new
 
 Commands  initialized (802), CPU time= 0.01 sec, 659 directives.
 Default parameters read. Elapsed time= 0.07 sec

 Checking input...
 Passed
1


                                         ***  PROGRAM SYSTEM MOLPRO  ***
                                       Copyright, TTI GmbH Stuttgart, 2015
                                    Version 2020.1 linked Oct  6 2020 12:04:11


 **********************************************************************************************************************************
 LABEL *   Methanol Ground State Energy with CCSD(T)-F12 and cc-pVTZ-F12                 
  64 bit serial version                                                                  DATE: 08-Oct-24          TIME: 17:35:09  
 **********************************************************************************************************************************

 SHA1:             8c27446f6450a7499e38f603e13c65f775101d37
 **********************************************************************************************************************************

 Memory per process:       500 MW
 Total memory per node:    500 MW

 GA preallocation disabled
 GA check disabled

 Variable memory set to 500.0 MW

 SETTING RCO            =         1.42077677                                  
 SETTING ROH            =         0.96013932                                  
 SETTING RCH1           =         1.09171752                                  
 SETTING RCH2           =         1.08440070                                  
 SETTING RCH3           =         1.09171752                                  
 SETTING ACOH           =       108.12930637                                  
 SETTING AOCH1          =       111.65221523                                  
 SETTING AOCH2          =       107.18733878                                  
 SETTING AOCH3          =       111.65221523                                  
 SETTING AHH1           =        62.14074957                                  
 SETTING AHH2           =       179.64644661                                  
 SETTING AHH3           =       298.21280382                                  
 SETTING BASIS          =    CC-PVTZ-F12


 Recomputing integrals since basis changed


 Using spherical harmonics

 Library entry C      S cc-pVTZ-F12          selected for orbital group  1
 Library entry C      P cc-pVTZ-F12          selected for orbital group  1
 Library entry C      D cc-pVTZ-F12          selected for orbital group  1
 Library entry C      F cc-pVTZ-F12          selected for orbital group  1
 Library entry O      S cc-pVTZ-F12          selected for orbital group  2
 Library entry O      P cc-pVTZ-F12          selected for orbital group  2
 Library entry O      D cc-pVTZ-F12          selected for orbital group  2
 Library entry O      F cc-pVTZ-F12          selected for orbital group  2
 Library entry H      S cc-pVTZ-F12          selected for orbital group  3
 Library entry H      P cc-pVTZ-F12          selected for orbital group  3
 Library entry H      D cc-pVTZ-F12          selected for orbital group  3


 PROGRAM * SEWARD (Integral evaluation for generally contracted gaussian basis sets)     Author: Roland Lindh, 1990

 Geometry written to block  1 of record 700

 Orientation using atomic masses  
 Molecule type: Asymmetric top
 Rotational constants:      23.9756494     24.7863128    128.8198230 GHz  (calculated with average atomic masses)

 Point group  C1  



 ATOMIC COORDINATES

 NR  ATOM    CHARGE       X              Y              Z

   1  C       6.00   -0.001014086    0.027679137   -1.376508229
   2  O       8.00   -0.001504399   -0.122477942    1.304168503
   3  H       1.00    0.023210933    1.567397323    1.964289247
   4  H1      1.00    1.707086535    0.940417437   -2.087468455
   5  H2      1.00   -0.017001441   -1.893034330   -2.090586777
   6  H3      1.00   -1.677331914    0.999521486   -2.084776797

 Bond lengths in Bohr (Angstrom)

 1-2  2.684878979  1-4  2.063047110  1-5  2.049220337  1-6  2.063047110  2-3  1.814400356
     ( 1.420776770)     ( 1.091717516)     ( 1.084400703)     ( 1.091717516)     ( 0.960139320)

 Bond angles

  1-2-3  108.12930637   2-1-4  111.65221523   2-1-5  107.18733878   2-1-6  111.65221523

  4-1-5  107.52074859   4-1-6  110.24426441   5-1-6  108.39459424

 NUCLEAR CHARGE:                   18
 NUMBER OF PRIMITIVE AOS:         228
 NUMBER OF SYMMETRY AOS:          206
 NUMBER OF CONTRACTIONS:          178   (  178A   )
 NUMBER OF INNER CORE ORBITALS:     0   (    0A   )
 NUMBER OF OUTER CORE ORBITALS:     2   (    2A   )
 NUMBER OF VALENCE ORBITALS:       12   (   12A   )


 NUCLEAR REPULSION ENERGY   40.34510044

 Eigenvalues of metric

         1 0.880E-04 0.184E-03 0.310E-03 0.322E-03 0.460E-03 0.493E-03 0.560E-03 0.570E-03


 Contracted 2-electron integrals neglected if value below      1.0D-11
 AO integral compression algorithm  1   Integral accuracy      1.0D-11

     608.961 MB (compressed) written to integral file ( 51.1%)


 NUMBER OF SORTED TWO-ELECTRON INTEGRALS:  126906346.     BUFFER LENGTH:  32768
 NUMBER OF SEGMENTS:   8  SEGMENT LENGTH:   15999503      RECORD LENGTH: 524288

 Memory used in sort:      16.56 MW

 SORT1 READ   149034713. AND WROTE   124770436. INTEGRALS IN    360 RECORDS. CPU TIME:     3.96 SEC, REAL TIME:    71.76 SEC
 SORT2 READ   124770436. AND WROTE   126906346. INTEGRALS IN   2323 RECORDS. CPU TIME:     2.00 SEC, REAL TIME:   149.47 SEC

 FILE SIZES:   FILE 1:   640.2 MBYTE,  FILE 4:  1510.0 MBYTE,   TOTAL:   2150.2 MBYTE

 OPERATOR DM      FOR CENTER  0  COORDINATES:    0.000000    0.000000    0.000000


 **********************************************************************************************************************************
 DATASETS  * FILE   NREC   LENGTH (MB)   RECORD NAMES
              1      19      562.18       500      610      700      900      950      970     1000      129      960     1100   
                                          VAR    BASINP    GEOM    SYMINP    ZMAT    AOBASIS   BASIS     P2S    ABASIS      S 
                                         1400     1410     1200     1210     1080     1600     1650     1300     1700   
                                           T        V       H0       H01     AOSYM     SMH    MOLCAS    ERIS     OPER   

 PROGRAMS   *        TOTAL       INT
 CPU TIMES  *        10.68     10.57
 REAL TIME  *       256.34 SEC
 DISK USED  *         2.15 GB
 **********************************************************************************************************************************


 PROGRAM * RHF-SCF (CLOSED SHELL)       Authors: W. Meyer, H.-J. Werner


 NUMBER OF ELECTRONS:       9+    9-    SPACE SYMMETRY=1    SPIN SYMMETRY: Singlet 
 CONVERGENCE THRESHOLDS:    1.00E-05 (Density)    1.00E-07 (Energy)
 MAX. NUMBER OF ITERATIONS:       60
 INTERPOLATION TYPE:            DIIS
 INTERPOLATION STEPS:              2 (START)      1 (STEP)
 LEVEL SHIFTS:                  0.00 (CLOSED)  0.00 (OPEN) 



 Orbital guess generated from atomic densities. Full valence occupancy:   14

 Molecular orbital dump at record        2100.2

 Initial occupancy:   9

 ITERATION    DDIFF          GRAD             ENERGY        2-EL.EN.            DIPOLE MOMENTS         DIIS   ORB.
    1      0.000D+00      0.000D+00      -115.06233312    164.484219    0.01458    0.90129   -0.47738    0    start
    2      0.000D+00      0.506D-02      -115.09067167    161.902801    0.00803    0.49502   -0.30346    1    diag
    3      0.480D-02      0.277D-02      -115.09815400    163.165251    0.00946    0.59839   -0.39652    2    diag
    4      0.163D-02      0.546D-03      -115.09868600    162.988837    0.00933    0.59337   -0.39196    3    diag
    5      0.436D-03      0.110D-03      -115.09872036    163.000303    0.00924    0.58946   -0.39678    4    diag
    6      0.121D-03      0.204D-04      -115.09872191    162.998059    0.00923    0.58961   -0.39756    5    diag
    7      0.349D-04      0.434D-05      -115.09872198    162.997692    0.00923    0.58943   -0.39783    6    diag
    8      0.877D-05      0.113D-05      -115.09872199    162.998028    0.00923    0.58943   -0.39785    0    orth

 Final occupancy:   9

 !RHF STATE  1.1 Energy              -115.098721988471
 Nuclear energy                        40.34510044
 One-electron energy                 -236.94283648
 Two-electron energy                   81.49901405
 Virial quotient                       -1.00101691
 !RHF STATE  1.1 Dipole moment          0.00923003     0.58942557    -0.39784836
 Dipole moment /Debye                   0.02345887     1.49807224    -1.01116342

 Orbital energies:

         1.1          2.1          3.1          4.1          5.1          6.1          7.1          8.1          9.1         10.1
    -20.556350   -11.269699    -1.356907    -0.926419    -0.690180    -0.622573    -0.594293    -0.503271    -0.452712     0.054768

        11.1
      0.064986


 HOMO      9.1    -0.452712 =     -12.3189eV
 LUMO     10.1     0.054768 =       1.4903eV
 LUMO-HOMO         0.507480 =      13.8092eV


 **********************************************************************************************************************************
 DATASETS  * FILE   NREC   LENGTH (MB)   RECORD NAMES
              1      19      562.18       500      610      700      900      950      970     1000      129      960     1100   
                                          VAR    BASINP    GEOM    SYMINP    ZMAT    AOBASIS   BASIS     P2S    ABASIS      S 
                                         1400     1410     1200     1210     1080     1600     1650     1300     1700   
                                           T        V       H0       H01     AOSYM     SMH    MOLCAS    ERIS     OPER   

              2       4        3.48       700     1000      520     2100   
                                         GEOM     BASIS   MCVARS     RHF  

 PROGRAMS   *        TOTAL    HF-SCF       INT
 CPU TIMES  *        17.41      6.73     10.57
 REAL TIME  *       282.99 SEC
 DISK USED  *         2.15 GB
 **********************************************************************************************************************************


 PROGRAM * MP2 (Closed-shell)     Authors: C. Hampel, H.-J. Werner, 1991, M. Deegan, P.J. Knowles, 1992

                                   MP2-F12 implementation by H.-J. Werner, 2007

                   Density fitting integral evaluation by F.R. Manby, 2003,2007, G. Knizia, 2010


 Basis set AUG-CC-PVTZ/JKFIT generated.  Number of basis functions:   392 
 Basis set CC-PVTZ-F12/OPTRI generated.  Number of basis functions:   314 
 Basis set AUG-CC-PVTZ/MP2FIT generated. Number of basis functions:   396 

 Convergence thresholds:  THRVAR = 1.00D-08  THRDEN = 1.00D-06

 Number of core orbitals:           2 (   2 )
 Number of closed-shell orbitals:   7 (   7 )
 Number of external orbitals:     169 ( 169 )

 Molecular orbitals read from record     2100.2  Type=RHF/CANONICAL (state 1.1)

 MP2-F12 correlation treatment (H.-J. Werner, 2006)
 ==================================================

 Using MP2-F12 with ansatz 3C(FIX)

 Using projected zeroth-order Hamiltonian (+Z)

 FOCKRIB=T FOCKRIC=T FOCKRIP=T CABSP=T CABSA=T CABSK=T CABSF=T GBC=F EBC=F DMAT=T NOFIK=T NOPAO=1 SOLVE=-1  USEPAO=0
 EXCH_A= T EXCH_B= F EXCH_C= F EXCH_P= F

 Geminal basis:    OPTFULL  GEM_TYPE=SLATER  BETA=1.0  NGEM=6

 Optimizing Gaussian exponents for each gem_beta

 Geminal optimization for beta= 1.0000
 Weight function:   m=0, omega= 1.4646

 Augmented Hessian optimization of geminal fit. Trust ratio= 0.40000
 Convergence reached after   2 iterations. Final gradient= 8.66D-16, Step= 4.23D-06, Delta= 1.28D-09

 Alpha:                 0.19532     0.81920     2.85917     9.50073    35.69989   197.79328
 Coeff:                 0.27070     0.30552     0.18297     0.10986     0.06810     0.04224


 All pairs explicitly correlated. Number of r12-pairs:           28

 Excluding core orbitals from MO domains

 AO(A)-basis ORBITAL           loaded. Number of functions:     178
 RI(R)-basis CC-PVTZ-F12/OPTRI loaded. Number of functions:     314
 DF-basis AUG-CC-PVTZ/JKFIT    loaded. Number of functions:     392

 Screening thresholds:   THRAO=  1.00D-10  THRMO=  1.00D-09  THRPROD=  1.00D-09
                         THRSW=  1.00D-05  THROV=  1.00D-12  THRAOF12= 1.00D-08

 CPU time for Fock operators                      1.26 sec

 Construction of ABS:
 Smallest eigenvalue of S          4.40E-04  (threshold= 1.00E-08)
 Ratio eigmin/eigmax               5.62E-05  (threshold= 1.00E-09)
 Smallest eigenvalue of S kept     4.40E-04  (threshold= 4.40E-04, 0 functions deleted, 314 kept)

 Construction of CABS:
 Smallest eigenvalue of S          7.27E-07  (threshold= 1.00E-08)
 Ratio eigmin/eigmax               7.27E-07  (threshold= 1.00E-09)
 Smallest eigenvalue of S kept     7.27E-07  (threshold= 7.27E-07, 0 functions deleted, 314 kept)

 CPU time for CABS singles                        0.03 sec

 CABS-singles contribution of  -0.00135355 patched into reference energy.
 New reference energy        -115.10007554

 AO(A)-basis ORBITAL           loaded. Number of functions:     178
 RI(R)-basis CC-PVTZ-F12/OPTRI loaded. Number of functions:     314
 DF-basis AUG-CC-PVTZ/MP2FIT   loaded. Number of functions:     396

 Screening thresholds:   THRAO=  1.00D-10  THRMO=  1.00D-09  THRPROD=  1.00D-09
                         THRSW=  1.00D-05  THROV=  1.00D-12  THRAOF12= 1.00D-08

 CPU time for 3-index integral evaluation         3.13 sec
 CPU time for first  half transformation          0.19 sec (12995.0 MFLOP/sec)
 CPU time for second half transformation          0.02 sec ( 3108.5 MFLOP/sec)
 CPU time for tilde quantities                    0.02 sec (75522.6 MFLOP/sec)
 CPU time for assembly                            0.16 sec (77210.0 MFLOP/sec)
 CPU time for tranop_f12                          0.22 sec (72091.9 MFLOP/sec)
 CPU time for f12 integrals (total)               4.10 sec, Elapsed time:      5.87 sec
 CPU time for f12 matrices (total)                0.08 sec, Elapsed time:      0.12 sec

 Diagonal F12 approximation with fixed coefficients:  TSING= 0.500,  TTRIP= 0.250 (scaled by -1/beta)

 DF-MP2-F12 energy corrections:
 ==============================
 Approx.                                    Singlet             Triplet             Total
 DF-MP2-F12/3*C(DX,FIX)                -0.038287530858     -0.004212760524     -0.042500291382
 DF-MP2-F12/3*C(FIX)                   -0.036088839051     -0.003931022927     -0.040019861978
 DF-MP2-F12/3C(FIX)                    -0.036031469311     -0.004065991497     -0.040097460808

 DF-MP2-F12 correlation energies:
 ================================
 Approx.                                    Singlet             Triplet             Ecorr            Total Energy
 DF-MP2                                -0.291099630623     -0.152373233381     -0.443472864003   -115.543548405613
 DF-MP2-F12/3*C(DX,FIX)                -0.329387161481     -0.156585993904     -0.485973155385   -115.586048696994
 DF-MP2-F12/3*C(FIX)                   -0.327188469674     -0.156304256308     -0.483492725982   -115.583568267591
 DF-MP2-F12/3C(FIX)                    -0.327131099933     -0.156439224878     -0.483570324811   -115.583645866421

 SCS-DF-MP2 energies (F_SING= 1.20000  F_TRIP= 0.62222  F_PARALLEL= 0.33333):
 ============================================================================
 SCS-DF-MP2                            -0.444129568628   -115.544205110238
 SCS-DF-MP2-F12/3*C(DX,FIX)            -0.492695878873   -115.592771420482
 SCS-DF-MP2-F12/3*C(FIX)               -0.489882145311   -115.589957686921
 SCS-DF-MP2-F12/3C(FIX)                -0.489897282066   -115.589972823676
 Symmetry transformation completed.

 Number of N-1 electron functions:               7
 Number of N-2 electron functions:              28
 Number of singly external CSFs:              1183
 Number of doubly external CSFs:            700336
 Total number of CSFs:                      701520

 Length of J-op  integral file:             104.98 MB
 Length of K-op  integral file:             138.67 MB

 Integral transformation finished. Total CPU:   1.01 sec, npass=  1  Memory used:   2.18 MW

 ITER.      SQ.NORM     CORR.ENERGY   TOTAL ENERGY   ENERGY CHANGE     VAR   MIC
   1      1.00000000    -0.44353926  -115.54361480    -0.44353926  0.00D+00   0
   2      1.11474287    -0.44353926  -115.54361480     0.00000000 -0.27D-15   0

 Solving MP2-F12 equations

   1      1.11470657    -0.48287882  -115.58295436    -0.03933956 -0.37D-04   0
   2      1.11470657    -0.48363532  -115.58371086    -0.00075649  0.28D-17   0
   3      1.11470657    -0.48363532  -115.58371086     0.00000000 -0.11D-18   0

 CPU TIME FOR ITERATIVE MP2:    0.08 SEC


 MP2-F12 energy corrections:
 ===========================
 Approx.                                    Singlet             Triplet             Total
 MP2-F12/3*C(DX,FIX)                   -0.038287530858     -0.004212760524     -0.042500291382
 MP2-F12/3*C(FIX)                      -0.036088839051     -0.003931022927     -0.040019861978
 MP2-F12/3C(FIX)                       -0.036028766927     -0.004067289768     -0.040096056694

 MP2-F12 correlation energies:
 =============================
 Approx.                                    Singlet             Triplet             Ecorr            Total Energy
 MP2                                   -0.291282949773     -0.152256308918     -0.443539258691   -115.543614800300
 MP2-F12/3*C(DX,FIX)                   -0.329570480631     -0.156469069441     -0.486039550072   -115.586115091682
 MP2-F12/3*C(FIX)                      -0.327371788824     -0.156187331845     -0.483559120669   -115.583634662278
 MP2-F12/3C(FIX)                       -0.327311716700     -0.156323598685     -0.483635315385   -115.583710856994

 SCS-MP2 energies (F_SING= 1.20000  F_TRIP= 0.62222  F_PARALLEL= 0.33333):
 =========================================================================
 SCS-MP2                               -0.444276798610   -115.544352340219
 SCS-MP2-F12/3*C(DX,FIX)               -0.492843108854   -115.592918650463
 SCS-MP2-F12/3*C(FIX)                  -0.490029375292   -115.590104916902
 SCS-MP2-F12/3C(FIX)                   -0.490042076999   -115.590117618609


  Reference energy                   -115.098721988471
  F12 singles correction               -0.001353553138

 F12 singles corrections added to reference energy

  New reference energy               -115.100075541609

  F12/3C(F) singlet correction         -0.036028766927
  F12/3C(F) triplet correction         -0.004067289768
  F12/3C(F) total correction           -0.040096056694
  MP2-F12/3C(F) singlet pair energy    -0.327311716700
  MP2-F12/3C(F) triplet pair energy    -0.156323598685
  MP2-F12/3C(F) correlation energy     -0.483635315385

 !MP2-F12/3C(F) total energy         -115.583710856994


 **********************************************************************************************************************************
 DATASETS  * FILE   NREC   LENGTH (MB)   RECORD NAMES
              1      20      573.35       500      610      700      900      950      970     1000      129      960     1100   
                                          VAR    BASINP    GEOM    SYMINP    ZMAT    AOBASIS   BASIS     P2S    ABASIS      S 
                                         1400     1410     1200     1210     1080     1600     1650     1300     1700     1380   
                                           T        V       H0       H01     AOSYM     SMH    MOLCAS    ERIS     OPER     JKOP   

              2       7        4.13       700     1000      520     2100     7360     7350     7000   
                                         GEOM     BASIS   MCVARS     RHF    F12ABS    EF12   

 PROGRAMS   *        TOTAL   MP2-F12    HF-SCF       INT
 CPU TIMES  *        24.18      6.76      6.73     10.57
 REAL TIME  *       292.51 SEC
 DISK USED  *         2.15 GB
 **********************************************************************************************************************************


 PROGRAM * CCSD (Closed-shell coupled cluster)     Authors: C. Hampel, H.-J. Werner, 1991, M. Deegan, P.J. Knowles, 1992

                                  CCSD-F12 implementation by  H.-J. Werner, 2007

                   Density fitting integral evaluation by F.R. Manby, 2003,2007, G. Knizia, 2010



 Convergence thresholds:  THRVAR = 1.00D-08  THRDEN = 1.00D-06

 CCSD(T)     terms to be evaluated (factor= 1.000)


 Number of core orbitals:           2 (   2 )
 Number of closed-shell orbitals:   7 (   7 )
 Number of external orbitals:     169 ( 169 )

 Molecular orbitals read from record     2100.2  Type=RHF/CANONICAL (state 1.1)

 MP2-F12 correlation treatment (H.-J. Werner, 2006)
 ==================================================

 Using MP2-F12 with ansatz 3C(FIX)

 Using projected zeroth-order Hamiltonian (+Z)

 FOCKRIB=T FOCKRIC=T FOCKRIP=T CABSP=T CABSA=T CABSK=T CABSF=T GBC=F EBC=F DMAT=T NOFIK=T NOPAO=1 SOLVE=-1  USEPAO=0
 EXCH_A= T EXCH_B= F EXCH_C= F EXCH_P= F

 Geminal basis:    OPTFULL  GEM_TYPE=SLATER  BETA=1.0  NGEM=6

 Optimizing Gaussian exponents for each gem_beta

 Geminal optimization for beta= 1.0000
 Weight function:   m=0, omega= 1.4646

 Augmented Hessian optimization of geminal fit. Trust ratio= 0.40000
 Convergence reached after   2 iterations. Final gradient= 8.66D-16, Step= 4.23D-06, Delta= 1.28D-09

 Alpha:                 0.19532     0.81920     2.85917     9.50073    35.69989   197.79328
 Coeff:                 0.27070     0.30552     0.18297     0.10986     0.06810     0.04224


 All pairs explicitly correlated. Number of r12-pairs:           28

 Excluding core orbitals from MO domains

 AO(A)-basis ORBITAL           loaded. Number of functions:     178
 RI(R)-basis CC-PVTZ-F12/OPTRI loaded. Number of functions:     314
 DF-basis AUG-CC-PVTZ/JKFIT    loaded. Number of functions:     392

 Screening thresholds:   THRAO=  1.00D-10  THRMO=  1.00D-09  THRPROD=  1.00D-09
                         THRSW=  1.00D-05  THROV=  1.00D-12  THRAOF12= 1.00D-08

 CPU time for Fock operators                      1.27 sec

 Construction of ABS:
 Smallest eigenvalue of S          4.40E-04  (threshold= 1.00E-08)
 Ratio eigmin/eigmax               5.62E-05  (threshold= 1.00E-09)
 Smallest eigenvalue of S kept     4.40E-04  (threshold= 4.40E-04, 0 functions deleted, 314 kept)

 Construction of CABS:
 Smallest eigenvalue of S          7.27E-07  (threshold= 1.00E-08)
 Ratio eigmin/eigmax               7.27E-07  (threshold= 1.00E-09)
 Smallest eigenvalue of S kept     7.27E-07  (threshold= 7.27E-07, 0 functions deleted, 314 kept)

 CPU time for CABS singles                        0.03 sec

 CABS-singles contribution of  -0.00135355 patched into reference energy.
 New reference energy        -115.10007554

 AO(A)-basis ORBITAL           loaded. Number of functions:     178
 RI(R)-basis CC-PVTZ-F12/OPTRI loaded. Number of functions:     314
 DF-basis AUG-CC-PVTZ/MP2FIT   loaded. Number of functions:     396

 Screening thresholds:   THRAO=  1.00D-10  THRMO=  1.00D-09  THRPROD=  1.00D-09
                         THRSW=  1.00D-05  THROV=  1.00D-12  THRAOF12= 1.00D-08

 CPU time for 3-index integral evaluation         3.07 sec
 CPU time for first  half transformation          0.18 sec (13717.0 MFLOP/sec)
 CPU time for sorting                             0.01 sec
 CPU time for fitting                             0.01 sec (******* MFLOP/sec)
 CPU time for tilde quantities                    0.02 sec (75522.6 MFLOP/sec)
 CPU time for assembly                            0.15 sec (82357.3 MFLOP/sec)
 CPU time for tranop_f12                          0.26 sec (61000.9 MFLOP/sec)
 CPU time for f12 integrals (total)               4.05 sec, Elapsed time:      4.43 sec
 CPU time for f12 matrices (total)                0.08 sec, Elapsed time:      0.10 sec

 Diagonal F12 approximation with fixed coefficients:  TSING= 0.500,  TTRIP= 0.250 (scaled by -1/beta)

 DF-MP2-F12 energy corrections:
 ==============================
 Approx.                                    Singlet             Triplet             Total
 DF-MP2-F12/3*C(DX,FIX)                -0.038287530858     -0.004212760524     -0.042500291382
 DF-MP2-F12/3*C(FIX)                   -0.036088839051     -0.003931022927     -0.040019861978
 DF-MP2-F12/3C(FIX)                    -0.036031469311     -0.004065991497     -0.040097460808

 DF-MP2-F12 correlation energies:
 ================================
 Approx.                                    Singlet             Triplet             Ecorr            Total Energy
 DF-MP2                                -0.291099630623     -0.152373233381     -0.443472864003   -115.543548405613
 DF-MP2-F12/3*C(DX,FIX)                -0.329387161481     -0.156585993904     -0.485973155385   -115.586048696994
 DF-MP2-F12/3*C(FIX)                   -0.327188469674     -0.156304256308     -0.483492725982   -115.583568267591
 DF-MP2-F12/3C(FIX)                    -0.327131099933     -0.156439224878     -0.483570324811   -115.583645866421

 SCS-DF-MP2 energies (F_SING= 1.20000  F_TRIP= 0.62222  F_PARALLEL= 0.33333):
 ============================================================================
 SCS-DF-MP2                            -0.444129568628   -115.544205110238
 SCS-DF-MP2-F12/3*C(DX,FIX)            -0.492695878873   -115.592771420482
 SCS-DF-MP2-F12/3*C(FIX)               -0.489882145311   -115.589957686921
 SCS-DF-MP2-F12/3C(FIX)                -0.489897282066   -115.589972823676
 Symmetry transformation completed.

 Number of N-1 electron functions:               7
 Number of N-2 electron functions:              28
 Number of singly external CSFs:              1183
 Number of doubly external CSFs:            700336
 Total number of CSFs:                      701520

 Length of J-op  integral file:             105.23 MB
 Length of K-op  integral file:             138.67 MB
 Length of 3-ext integral record:             0.00 MB

 Memory could be reduced to 48.01 Mwords without degradation in triples

 Integral transformation finished. Total CPU:   2.44 sec, npass=  1  Memory used:  24.86 MW

 Reference energy:                   -115.10007554

 Adding F12 terms to K(Cij), methodcc=6,  factor= 1.0

 ITER.      SQ.NORM     CORR.ENERGY   TOTAL ENERGY   ENERGY CHANGE        DEN1      VAR(S)    VAR(P)  DIIS     TIME  TIME/IT
   1      1.11763051    -0.45287030  -115.55294585    -0.00933105     0.00166981  0.15D-02  0.19D-02  1  1    11.87    22.77
   2      1.12504018    -0.45323236  -115.55330790    -0.00036205    -0.00904612  0.24D-04  0.23D-03  2  2    14.46    13.62
   3      1.12776994    -0.45340982  -115.55348537    -0.00017747    -0.00186528  0.15D-04  0.13D-04  3  3    17.11    10.11
   4      1.12871714    -0.45342771  -115.55350325    -0.00001789    -0.00060014  0.86D-06  0.12D-05  4  4    19.76     8.31
   5      1.12887263    -0.45342927  -115.55350481    -0.00000156    -0.00003789  0.23D-06  0.10D-06  5  5    22.39     7.21
   6      1.12891516    -0.45342692  -115.55350246     0.00000235    -0.00000422  0.36D-07  0.96D-08  6  6    25.01     6.48
   7      1.12892627    -0.45342604  -115.55350158     0.00000087    -0.00000298  0.39D-08  0.14D-08  6  1    27.66     5.96
   8      1.12892807    -0.45342610  -115.55350165    -0.00000006     0.00000033  0.67D-09  0.20D-09  6  3    30.28     5.56

 Norm of t1 vector:      0.04999784      S-energy:     0.00000010      T1 diagnostic:  0.00944870
                                                                       D1 diagnostic:  0.02002616

 Adding energy correction from Wij-K(Fij), methodcc=6  factor= 1.0

  CCSD correlation energy              -0.453426104668
  MP2-F12 correction (uncoupled)       -0.038546153053
  C*T doubles correction               -0.001164625996
  f12b correction                       0.007098818606


 Total CPU time for triples:     32.82 sec


 RESULTS
 =======

  Reference energy                   -115.098721988471
  F12 singles correction               -0.001353553138

 F12 singles corrections added to reference energy

  New reference energy               -115.100075541609

  F12a singlet correction              -0.035792067562
  F12a triplet correction              -0.003918711487
  F12a total correction                -0.039710779049

 F12a corrections for ansatz F12/3C(FIX) added to CCSD energy

  CCSD-F12a singlet pair energy        -0.351213865264
  CCSD-F12a triplet pair energy        -0.141923115231
  CCSD-F12a correlation energy         -0.493136883717

  Triples (T) contribution             -0.016015415422
  Total correlation energy             -0.509152299139

  CCSD-F12a total energy             -115.593212425327
  CCSD[T]-F12a energy                -115.609780839879
  CCSD-T-F12a energy                 -115.608984152028
 !CCSD(T)-F12a total energy          -115.609227840749

 F12b corrections for ansatz F12/3C(FIX) added to CCSD(T)-F12a energy

  CCSD-F12b singlet pair energy        -0.344577158678
  CCSD-F12b triplet pair energy        -0.141461003211
  CCSD-F12b correlation energy         -0.486038065111

  Triples (T) contribution             -0.016015415422
  Total correlation energy             -0.502053480533

  CCSD-F12b total energy             -115.586113606721
  CCSD[T]-F12b energy                -115.602682021273
  CCSD-T-F12b energy                 -115.601885333422
 !CCSD(T)-F12b total energy          -115.602129022142

 Timing summary (sec):

 STEP                 CPU(USER)    SYS     CPU(TOT)    WALL
 Transformation          2.48      0.95      3.43      6.45
 CCSD iterations        22.33      2.69     25.02     44.74
 Triples                32.82      0.99     33.81     34.38
 MP2-F12                 5.49      0.43      5.92      5.96
 F12b energy             2.14      0.09      2.23      2.31

 Program statistics:

 Available memory in ccsd:               499999646
 Min. memory needed in ccsd:               2228017
 Max. memory used in ccsd:                 2807120
 Max. memory used in cckext:               2027429 ( 9 integral passes)



 **********************************************************************************************************************************
 DATASETS  * FILE   NREC   LENGTH (MB)   RECORD NAMES
              1      20      709.31       500      610      700      900      950      970     1000      129      960     1100   
                                          VAR    BASINP    GEOM    SYMINP    ZMAT    AOBASIS   BASIS     P2S    ABASIS      S 
                                         1400     1410     1200     1210     1080     1600     1650     1300     1700     1380   
                                           T        V       H0       H01     AOSYM     SMH    MOLCAS    ERIS     OPER     JKOP   

              2       7        4.13       700     1000      520     2100     7360     7350     7000   
                                         GEOM     BASIS   MCVARS     RHF    F12ABS    EF12   

 PROGRAMS   *        TOTAL   CCSD(T)   MP2-F12    HF-SCF       INT
 CPU TIMES  *        89.49     65.31      6.76      6.73     10.57
 REAL TIME  *       386.62 SEC
 DISK USED  *         2.15 GB
 **********************************************************************************************************************************
 SETTING XXX            =    "MMM"
 SETTING POINT          =       108.00000000                                  

 *** ### CH3OH


 XXX       RCO          ROH          RCH1         RCH2         RCH3           ACOH           AOCH1          AOCH2          AOCH3         AHH1           AHH2           AHH3            ENERGY        POINT
 "MMM"   1.42077677   0.96013932   1.09171752   1.08440070   1.09171752   108.12930637   111.65221523   107.18733878   111.65221523   62.14074957   179.64644661   298.21280382   -115.60922784   108.0000
                                                  

 CCSD(T)-F12/cc-pVTZ-F12 energy=   -115.602129022142

     CCSD(T)-F12         MP2-F12          HF-SCF
   -115.60212902   -115.58371086   -115.09872199
 **********************************************************************************************************************************
 Molpro calculation terminated
