
 Primary working directories    : /tmpdir/job/2955688.undefined/molpro.ecUuCcKD0L
 Secondary working directories  : /tmpdir/job/2955688.undefined/molpro.ecUuCcKD0L
 Wavefunction directory         : /home/zcaposm/wfu/
 Main file repository           : /tmpdir/job/2955688.undefined/molpro.ecUuCcKD0L/

 id        : uclcc

 Nodes                         nprocs
 node-h00a-016.myriad.ucl.ac.uk    1

 Using customized tuning parameters: mindgm=1; mindgv=20; mindgc=4; mindgr=1; noblas=0; minvec=7
 default implementation of scratch files=df  


 Variables initialized (945), CPU time= 0.00 sec
 ***,Methanol Ground State Energy with CCSD(T)-F12 and cc-pVTZ-F12
 memory,500,m;
 
 geometry={angstrom
 c
 o , 1, rco
 h , 2, roh, 1, acoh
 h1, 1, rch1, 2, aoch1  3  ahh1
 h2, 1, rch2, 2, aoch2, 3, ahh2
 h3, 1, rch3, 2, aoch3, 3, ahh3
 }
 
                                                ! Specify the initial values of the internal coordinates (in Angstroms and degrees)
 
 rco= 1.42077677
 roh= 0.96013932
 rch1= 1.0917338678040138
 rch2= 1.0844013787118687
 rch3= 1.0916999728144898
 acoh= 108.12930637
 aoch1= 111.64439933847198
 aoch2= 107.1877375898564
 aoch3= 111.65979212328078
 ahh1=62.13364279
 ahh2=180.7
 ahh3=299.26635720999997
 
                                                                                 ! Use the cc-pVTZ-F12 basis set
 basis=cc-pVTZ-F12
 
 hf
 
                                                                                 ! Use explicitly correlated F12 methods
                                                                            ! First, MP2-F12 (useful for initial electronic energy)
 {mp2-f12}
 
                                                                        ! If desired, perform CCSD(T)-F12 for more accurate results
 {ccsd(t)-f12}
 
                                                                                 ! Output the energy
 xxx = "mmm"
 point = 116
 text ### CH3OH
 table,xxx,rco,roh,rch1,rch2,rch3,acoh,aoch1,aoch2,aoch3,ahh1,ahh2,ahh3,energy,point
 DIGITS, 0, 8, 8, 8, 8, 8, 8, 8, 8, 8,  8,  8,  8, 8, 4
 save,CH3OH_MEP_MP2_116.dat,new
 
 Commands  initialized (802), CPU time= 0.01 sec, 659 directives.
 Default parameters read. Elapsed time= 0.74 sec

 Checking input...
 Passed
1


                                         ***  PROGRAM SYSTEM MOLPRO  ***
                                       Copyright, TTI GmbH Stuttgart, 2015
                                    Version 2020.1 linked Oct  6 2020 12:04:11


 **********************************************************************************************************************************
 LABEL *   Methanol Ground State Energy with CCSD(T)-F12 and cc-pVTZ-F12                 
  64 bit serial version                                                                  DATE: 08-Oct-24          TIME: 17:35:20  
 **********************************************************************************************************************************

 SHA1:             8c27446f6450a7499e38f603e13c65f775101d37
 **********************************************************************************************************************************

 Memory per process:       500 MW
 Total memory per node:    500 MW

 GA preallocation disabled
 GA check disabled

 Variable memory set to 500.0 MW

 SETTING RCO            =         1.42077677                                  
 SETTING ROH            =         0.96013932                                  
 SETTING RCH1           =         1.09173387                                  
 SETTING RCH2           =         1.08440138                                  
 SETTING RCH3           =         1.09169997                                  
 SETTING ACOH           =       108.12930637                                  
 SETTING AOCH1          =       111.64439934                                  
 SETTING AOCH2          =       107.18773759                                  
 SETTING AOCH3          =       111.65979212                                  
 SETTING AHH1           =        62.13364279                                  
 SETTING AHH2           =       180.70000000                                  
 SETTING AHH3           =       299.26635721                                  
 SETTING BASIS          =    CC-PVTZ-F12


 Recomputing integrals since basis changed


 Using spherical harmonics

 Library entry C      S cc-pVTZ-F12          selected for orbital group  1
 Library entry C      P cc-pVTZ-F12          selected for orbital group  1
 Library entry C      D cc-pVTZ-F12          selected for orbital group  1
 Library entry C      F cc-pVTZ-F12          selected for orbital group  1
 Library entry O      S cc-pVTZ-F12          selected for orbital group  2
 Library entry O      P cc-pVTZ-F12          selected for orbital group  2
 Library entry O      D cc-pVTZ-F12          selected for orbital group  2
 Library entry O      F cc-pVTZ-F12          selected for orbital group  2
 Library entry H      S cc-pVTZ-F12          selected for orbital group  3
 Library entry H      P cc-pVTZ-F12          selected for orbital group  3
 Library entry H      D cc-pVTZ-F12          selected for orbital group  3


 PROGRAM * SEWARD (Integral evaluation for generally contracted gaussian basis sets)     Author: Roland Lindh, 1990

 Geometry written to block  1 of record 700

 Orientation using atomic masses  
 Molecule type: Asymmetric top
 Rotational constants:      23.9585474     24.8081616    128.7816143 GHz  (calculated with average atomic masses)

 Point group  C1  



 ATOMIC COORDINATES

 NR  ATOM    CHARGE       X              Y              Z

   1  C       6.00    0.000049112    0.025185071   -1.376591802
   2  O       8.00   -0.000022878   -0.122050990    1.304246998
   3  H       1.00    0.000924757    1.568720880    1.962531310
   4  H1      1.00    1.695816154    0.960931341   -2.087256234
   5  H2      1.00   -0.024944950   -1.896208263   -2.088583501
   6  H3      1.00   -1.672018050    1.003801042   -2.085484446

 Bond lengths in Bohr (Angstrom)

 1-2  2.684878979  1-4  2.063078011  1-5  2.049221615  1-6  2.063013959  2-3  1.814400356
     ( 1.420776770)     ( 1.091733868)     ( 1.084401379)     ( 1.091699973)     ( 0.960139320)

 Bond angles

  1-2-3  108.12930637   2-1-4  111.64439934   2-1-5  107.18773759   2-1-6  111.65979212

  4-1-5  108.39804134   4-1-6  109.43118557   5-1-6  108.39085181

 NUCLEAR CHARGE:                   18
 NUMBER OF PRIMITIVE AOS:         228
 NUMBER OF SYMMETRY AOS:          206
 NUMBER OF CONTRACTIONS:          178   (  178A   )
 NUMBER OF INNER CORE ORBITALS:     0   (    0A   )
 NUMBER OF OUTER CORE ORBITALS:     2   (    2A   )
 NUMBER OF VALENCE ORBITALS:       12   (   12A   )


 NUCLEAR REPULSION ENERGY   40.34553102

 Eigenvalues of metric

         1 0.879E-04 0.183E-03 0.309E-03 0.323E-03 0.460E-03 0.493E-03 0.560E-03 0.570E-03


 Contracted 2-electron integrals neglected if value below      1.0D-11
 AO integral compression algorithm  1   Integral accuracy      1.0D-11

     598.213 MB (compressed) written to integral file ( 50.2%)


 NUMBER OF SORTED TWO-ELECTRON INTEGRALS:  126906346.     BUFFER LENGTH:  32768
 NUMBER OF SEGMENTS:   8  SEGMENT LENGTH:   15999503      RECORD LENGTH: 524288

 Memory used in sort:      16.56 MW

 SORT1 READ   149034713. AND WROTE   124639401. INTEGRALS IN    359 RECORDS. CPU TIME:     1.63 SEC, REAL TIME:    44.04 SEC
 SORT2 READ   124639401. AND WROTE   126906346. INTEGRALS IN   2282 RECORDS. CPU TIME:     1.62 SEC, REAL TIME:   194.80 SEC

 FILE SIZES:   FILE 1:   629.4 MBYTE,  FILE 4:  1505.8 MBYTE,   TOTAL:   2135.2 MBYTE

 OPERATOR DM      FOR CENTER  0  COORDINATES:    0.000000    0.000000    0.000000


 **********************************************************************************************************************************
 DATASETS  * FILE   NREC   LENGTH (MB)   RECORD NAMES
              1      19      552.89       500      610      700      900      950      970     1000      129      960     1100   
                                          VAR    BASINP    GEOM    SYMINP    ZMAT    AOBASIS   BASIS     P2S    ABASIS      S 
                                         1400     1410     1200     1210     1080     1600     1650     1300     1700   
                                           T        V       H0       H01     AOSYM     SMH    MOLCAS    ERIS     OPER   

 PROGRAMS   *        TOTAL       INT
 CPU TIMES  *         9.02      8.88
 REAL TIME  *       276.89 SEC
 DISK USED  *         2.14 GB
 **********************************************************************************************************************************


 PROGRAM * RHF-SCF (CLOSED SHELL)       Authors: W. Meyer, H.-J. Werner


 NUMBER OF ELECTRONS:       9+    9-    SPACE SYMMETRY=1    SPIN SYMMETRY: Singlet 
 CONVERGENCE THRESHOLDS:    1.00E-05 (Density)    1.00E-07 (Energy)
 MAX. NUMBER OF ITERATIONS:       60
 INTERPOLATION TYPE:            DIIS
 INTERPOLATION STEPS:              2 (START)      1 (STEP)
 LEVEL SHIFTS:                  0.00 (CLOSED)  0.00 (OPEN) 



 Orbital guess generated from atomic densities. Full valence occupancy:   14

 Molecular orbital dump at record        2100.2

 Initial occupancy:   9

 ITERATION    DDIFF          GRAD             ENERGY        2-EL.EN.            DIPOLE MOMENTS         DIIS   ORB.
    1      0.000D+00      0.000D+00      -115.06237573    164.484225   -0.00001    0.90425   -0.47795    0    start
    2      0.000D+00      0.506D-02      -115.09072703    161.902326   -0.00024    0.49652   -0.30366    1    diag
    3      0.480D-02      0.277D-02      -115.09821263    163.165429   -0.00013    0.59987   -0.39688    2    diag
    4      0.163D-02      0.546D-03      -115.09874498    162.988867   -0.00012    0.59476   -0.39232    3    diag
    5      0.436D-03      0.110D-03      -115.09877938    163.000341   -0.00012    0.59078   -0.39714    4    diag
    6      0.121D-03      0.205D-04      -115.09878094    162.998118   -0.00012    0.59092   -0.39793    5    diag
    7      0.349D-04      0.434D-05      -115.09878101    162.997736   -0.00012    0.59074   -0.39820    6    diag
    8      0.877D-05      0.114D-05      -115.09878101    162.998081   -0.00012    0.59074   -0.39822    0    orth

 Final occupancy:   9

 !RHF STATE  1.1 Energy              -115.098781014331
 Nuclear energy                        40.34553102
 One-electron energy                 -236.94335250
 Two-electron energy                   81.49904046
 Virial quotient                       -1.00101601
 !RHF STATE  1.1 Dipole moment         -0.00012370     0.59073755    -0.39821747
 Dipole moment /Debye                  -0.00031439     1.50140674    -1.01210156

 Orbital energies:

         1.1          2.1          3.1          4.1          5.1          6.1          7.1          8.1          9.1         10.1
    -20.556342   -11.269759    -1.356925    -0.926369    -0.690809    -0.621560    -0.594388    -0.504325    -0.452159     0.054650

        11.1
      0.065009


 HOMO      9.1    -0.452159 =     -12.3039eV
 LUMO     10.1     0.054650 =       1.4871eV
 LUMO-HOMO         0.506808 =      13.7910eV


 **********************************************************************************************************************************
 DATASETS  * FILE   NREC   LENGTH (MB)   RECORD NAMES
              1      19      552.89       500      610      700      900      950      970     1000      129      960     1100   
                                          VAR    BASINP    GEOM    SYMINP    ZMAT    AOBASIS   BASIS     P2S    ABASIS      S 
                                         1400     1410     1200     1210     1080     1600     1650     1300     1700   
                                           T        V       H0       H01     AOSYM     SMH    MOLCAS    ERIS     OPER   

              2       4        3.48       700     1000      520     2100   
                                         GEOM     BASIS   MCVARS     RHF  

 PROGRAMS   *        TOTAL    HF-SCF       INT
 CPU TIMES  *        18.54      9.52      8.88
 REAL TIME  *       293.48 SEC
 DISK USED  *         2.14 GB
 **********************************************************************************************************************************


 PROGRAM * MP2 (Closed-shell)     Authors: C. Hampel, H.-J. Werner, 1991, M. Deegan, P.J. Knowles, 1992

                                   MP2-F12 implementation by H.-J. Werner, 2007

                   Density fitting integral evaluation by F.R. Manby, 2003,2007, G. Knizia, 2010


 Basis set AUG-CC-PVTZ/JKFIT generated.  Number of basis functions:   392 
 Basis set CC-PVTZ-F12/OPTRI generated.  Number of basis functions:   314 
 Basis set AUG-CC-PVTZ/MP2FIT generated. Number of basis functions:   396 

 Convergence thresholds:  THRVAR = 1.00D-08  THRDEN = 1.00D-06

 Number of core orbitals:           2 (   2 )
 Number of closed-shell orbitals:   7 (   7 )
 Number of external orbitals:     169 ( 169 )

 Molecular orbitals read from record     2100.2  Type=RHF/CANONICAL (state 1.1)

 MP2-F12 correlation treatment (H.-J. Werner, 2006)
 ==================================================

 Using MP2-F12 with ansatz 3C(FIX)

 Using projected zeroth-order Hamiltonian (+Z)

 FOCKRIB=T FOCKRIC=T FOCKRIP=T CABSP=T CABSA=T CABSK=T CABSF=T GBC=F EBC=F DMAT=T NOFIK=T NOPAO=1 SOLVE=-1  USEPAO=0
 EXCH_A= T EXCH_B= F EXCH_C= F EXCH_P= F

 Geminal basis:    OPTFULL  GEM_TYPE=SLATER  BETA=1.0  NGEM=6

 Optimizing Gaussian exponents for each gem_beta

 Geminal optimization for beta= 1.0000
 Weight function:   m=0, omega= 1.4646

 Augmented Hessian optimization of geminal fit. Trust ratio= 0.40000
 Convergence reached after   2 iterations. Final gradient= 8.66D-16, Step= 4.23D-06, Delta= 1.28D-09

 Alpha:                 0.19532     0.81920     2.85917     9.50073    35.69989   197.79328
 Coeff:                 0.27070     0.30552     0.18297     0.10986     0.06810     0.04224


 All pairs explicitly correlated. Number of r12-pairs:           28

 Excluding core orbitals from MO domains

 AO(A)-basis ORBITAL           loaded. Number of functions:     178
 RI(R)-basis CC-PVTZ-F12/OPTRI loaded. Number of functions:     314
 DF-basis AUG-CC-PVTZ/JKFIT    loaded. Number of functions:     392

 Screening thresholds:   THRAO=  1.00D-10  THRMO=  1.00D-09  THRPROD=  1.00D-09
                         THRSW=  1.00D-05  THROV=  1.00D-12  THRAOF12= 1.00D-08

 CPU time for Fock operators                      1.73 sec

 Construction of ABS:
 Smallest eigenvalue of S          4.36E-04  (threshold= 1.00E-08)
 Ratio eigmin/eigmax               5.56E-05  (threshold= 1.00E-09)
 Smallest eigenvalue of S kept     4.36E-04  (threshold= 4.36E-04, 0 functions deleted, 314 kept)

 Construction of CABS:
 Smallest eigenvalue of S          7.26E-07  (threshold= 1.00E-08)
 Ratio eigmin/eigmax               7.26E-07  (threshold= 1.00E-09)
 Smallest eigenvalue of S kept     7.26E-07  (threshold= 7.26E-07, 0 functions deleted, 314 kept)

 CPU time for CABS singles                        0.04 sec

 CABS-singles contribution of  -0.00135364 patched into reference energy.
 New reference energy        -115.10013465

 AO(A)-basis ORBITAL           loaded. Number of functions:     178
 RI(R)-basis CC-PVTZ-F12/OPTRI loaded. Number of functions:     314
 DF-basis AUG-CC-PVTZ/MP2FIT   loaded. Number of functions:     396

 Screening thresholds:   THRAO=  1.00D-10  THRMO=  1.00D-09  THRPROD=  1.00D-09
                         THRSW=  1.00D-05  THROV=  1.00D-12  THRAOF12= 1.00D-08

 CPU time for 3-index integral evaluation         3.85 sec
 CPU time for first  half transformation          0.38 sec ( 6497.5 MFLOP/sec)
 CPU time for sorting                             0.02 sec
 CPU time for fitting                             0.03 sec (37980.8 MFLOP/sec)
 CPU time for tilde quantities                    0.04 sec (37761.3 MFLOP/sec)
 CPU time for assembly                            0.23 sec (53711.3 MFLOP/sec)
 CPU time for tranop_f12                          0.34 sec (46647.7 MFLOP/sec)
 CPU time for f12 integrals (total)               5.41 sec, Elapsed time:     10.32 sec
 CPU time for f12 matrices (total)                0.13 sec, Elapsed time:      0.28 sec

 Diagonal F12 approximation with fixed coefficients:  TSING= 0.500,  TTRIP= 0.250 (scaled by -1/beta)

 DF-MP2-F12 energy corrections:
 ==============================
 Approx.                                    Singlet             Triplet             Total
 DF-MP2-F12/3*C(DX,FIX)                -0.038287479895     -0.004212635811     -0.042500115706
 DF-MP2-F12/3*C(FIX)                   -0.036088657886     -0.003930892083     -0.040019549969
 DF-MP2-F12/3C(FIX)                    -0.036031360506     -0.004065865762     -0.040097226269

 DF-MP2-F12 correlation energies:
 ================================
 Approx.                                    Singlet             Triplet             Ecorr            Total Energy
 DF-MP2                                -0.291095463356     -0.152363638186     -0.443459101542   -115.543593754616
 DF-MP2-F12/3*C(DX,FIX)                -0.329382943251     -0.156576273997     -0.485959217248   -115.586093870322
 DF-MP2-F12/3*C(FIX)                   -0.327184121242     -0.156294530269     -0.483478651511   -115.583613304585
 DF-MP2-F12/3C(FIX)                    -0.327126823862     -0.156429503948     -0.483556327811   -115.583690980884

 SCS-DF-MP2 energies (F_SING= 1.20000  F_TRIP= 0.62222  F_PARALLEL= 0.33333):
 ============================================================================
 SCS-DF-MP2                            -0.444118597565   -115.544253250639
 SCS-DF-MP2-F12/3*C(DX,FIX)            -0.492684769055   -115.592819422129
 SCS-DF-MP2-F12/3*C(FIX)               -0.489870875435   -115.590005528509
 SCS-DF-MP2-F12/3C(FIX)                -0.489886102203   -115.590020755277
 Symmetry transformation completed.

 Number of N-1 electron functions:               7
 Number of N-2 electron functions:              28
 Number of singly external CSFs:              1183
 Number of doubly external CSFs:            700336
 Total number of CSFs:                      701520

 Length of J-op  integral file:             104.98 MB
 Length of K-op  integral file:             138.67 MB

 Integral transformation finished. Total CPU:   1.68 sec, npass=  1  Memory used:   2.18 MW

 ITER.      SQ.NORM     CORR.ENERGY   TOTAL ENERGY   ENERGY CHANGE     VAR   MIC
   1      1.00000000    -0.44352550  -115.54366016    -0.44352550  0.00D+00   0
   2      1.11473552    -0.44352550  -115.54366016     0.00000000  0.41D-19   0

 Solving MP2-F12 equations

   1      1.11469920    -0.48286468  -115.58299933    -0.03933918 -0.37D-04   0
   2      1.11469920    -0.48362132  -115.58375598    -0.00075665 -0.43D-19   0
   3      1.11469920    -0.48362132  -115.58375598     0.00000000  0.38D-19   0

 CPU TIME FOR ITERATIVE MP2:    0.11 SEC


 MP2-F12 energy corrections:
 ===========================
 Approx.                                    Singlet             Triplet             Total
 MP2-F12/3*C(DX,FIX)                   -0.038287479895     -0.004212635811     -0.042500115706
 MP2-F12/3*C(FIX)                      -0.036088657886     -0.003930892083     -0.040019549969
 MP2-F12/3C(FIX)                       -0.036028659990     -0.004067162255     -0.040095822245

 MP2-F12 correlation energies:
 =============================
 Approx.                                    Singlet             Triplet             Ecorr            Total Energy
 MP2                                   -0.291278777955     -0.152246724515     -0.443525502470   -115.543660155544
 MP2-F12/3*C(DX,FIX)                   -0.329566257850     -0.156459360326     -0.486025618176   -115.586160271250
 MP2-F12/3*C(FIX)                      -0.327367435841     -0.156177616598     -0.483545052439   -115.583679705513
 MP2-F12/3C(FIX)                       -0.327307437945     -0.156313886770     -0.483621324715   -115.583755977789

 SCS-MP2 energies (F_SING= 1.20000  F_TRIP= 0.62222  F_PARALLEL= 0.33333):
 =========================================================================
 SCS-MP2                               -0.444265828800   -115.544400481874
 SCS-MP2-F12/3*C(DX,FIX)               -0.492832000290   -115.592966653364
 SCS-MP2-F12/3*C(FIX)                  -0.490018106670   -115.590152759744
 SCS-MP2-F12/3C(FIX)                   -0.490030899525   -115.590165552599


  Reference energy                   -115.098781014330
  F12 singles correction               -0.001353638743

 F12 singles corrections added to reference energy

  New reference energy               -115.100134653074

  F12/3C(F) singlet correction         -0.036028659990
  F12/3C(F) triplet correction         -0.004067162255
  F12/3C(F) total correction           -0.040095822245
  MP2-F12/3C(F) singlet pair energy    -0.327307437945
  MP2-F12/3C(F) triplet pair energy    -0.156313886770
  MP2-F12/3C(F) correlation energy     -0.483621324715

 !MP2-F12/3C(F) total energy         -115.583755977789


 **********************************************************************************************************************************
 DATASETS  * FILE   NREC   LENGTH (MB)   RECORD NAMES
              1      20      564.06       500      610      700      900      950      970     1000      129      960     1100   
                                          VAR    BASINP    GEOM    SYMINP    ZMAT    AOBASIS   BASIS     P2S    ABASIS      S 
                                         1400     1410     1200     1210     1080     1600     1650     1300     1700     1380   
                                           T        V       H0       H01     AOSYM     SMH    MOLCAS    ERIS     OPER     JKOP   

              2       7        4.13       700     1000      520     2100     7360     7350     7000   
                                         GEOM     BASIS   MCVARS     RHF    F12ABS    EF12   

 PROGRAMS   *        TOTAL   MP2-F12    HF-SCF       INT
 CPU TIMES  *        27.87      9.33      9.52      8.88
 REAL TIME  *       317.55 SEC
 DISK USED  *         2.14 GB
 **********************************************************************************************************************************


 PROGRAM * CCSD (Closed-shell coupled cluster)     Authors: C. Hampel, H.-J. Werner, 1991, M. Deegan, P.J. Knowles, 1992

                                  CCSD-F12 implementation by  H.-J. Werner, 2007

                   Density fitting integral evaluation by F.R. Manby, 2003,2007, G. Knizia, 2010



 Convergence thresholds:  THRVAR = 1.00D-08  THRDEN = 1.00D-06

 CCSD(T)     terms to be evaluated (factor= 1.000)


 Number of core orbitals:           2 (   2 )
 Number of closed-shell orbitals:   7 (   7 )
 Number of external orbitals:     169 ( 169 )

 Molecular orbitals read from record     2100.2  Type=RHF/CANONICAL (state 1.1)

 MP2-F12 correlation treatment (H.-J. Werner, 2006)
 ==================================================

 Using MP2-F12 with ansatz 3C(FIX)

 Using projected zeroth-order Hamiltonian (+Z)

 FOCKRIB=T FOCKRIC=T FOCKRIP=T CABSP=T CABSA=T CABSK=T CABSF=T GBC=F EBC=F DMAT=T NOFIK=T NOPAO=1 SOLVE=-1  USEPAO=0
 EXCH_A= T EXCH_B= F EXCH_C= F EXCH_P= F

 Geminal basis:    OPTFULL  GEM_TYPE=SLATER  BETA=1.0  NGEM=6

 Optimizing Gaussian exponents for each gem_beta

 Geminal optimization for beta= 1.0000
 Weight function:   m=0, omega= 1.4646

 Augmented Hessian optimization of geminal fit. Trust ratio= 0.40000
 Convergence reached after   2 iterations. Final gradient= 8.66D-16, Step= 4.23D-06, Delta= 1.28D-09

 Alpha:                 0.19532     0.81920     2.85917     9.50073    35.69989   197.79328
 Coeff:                 0.27070     0.30552     0.18297     0.10986     0.06810     0.04224


 All pairs explicitly correlated. Number of r12-pairs:           28

 Excluding core orbitals from MO domains

 AO(A)-basis ORBITAL           loaded. Number of functions:     178
 RI(R)-basis CC-PVTZ-F12/OPTRI loaded. Number of functions:     314
 DF-basis AUG-CC-PVTZ/JKFIT    loaded. Number of functions:     392

 Screening thresholds:   THRAO=  1.00D-10  THRMO=  1.00D-09  THRPROD=  1.00D-09
                         THRSW=  1.00D-05  THROV=  1.00D-12  THRAOF12= 1.00D-08

 CPU time for Fock operators                      1.73 sec

 Construction of ABS:
 Smallest eigenvalue of S          4.36E-04  (threshold= 1.00E-08)
 Ratio eigmin/eigmax               5.56E-05  (threshold= 1.00E-09)
 Smallest eigenvalue of S kept     4.36E-04  (threshold= 4.36E-04, 0 functions deleted, 314 kept)

 Construction of CABS:
 Smallest eigenvalue of S          7.26E-07  (threshold= 1.00E-08)
 Ratio eigmin/eigmax               7.26E-07  (threshold= 1.00E-09)
 Smallest eigenvalue of S kept     7.26E-07  (threshold= 7.26E-07, 0 functions deleted, 314 kept)

 CPU time for CABS singles                        0.04 sec

 CABS-singles contribution of  -0.00135364 patched into reference energy.
 New reference energy        -115.10013465

 AO(A)-basis ORBITAL           loaded. Number of functions:     178
 RI(R)-basis CC-PVTZ-F12/OPTRI loaded. Number of functions:     314
 DF-basis AUG-CC-PVTZ/MP2FIT   loaded. Number of functions:     396

 Screening thresholds:   THRAO=  1.00D-10  THRMO=  1.00D-09  THRPROD=  1.00D-09
                         THRSW=  1.00D-05  THROV=  1.00D-12  THRAOF12= 1.00D-08

 CPU time for 3-index integral evaluation         3.87 sec
 CPU time for first  half transformation          0.27 sec ( 9144.6 MFLOP/sec)
 CPU time for second half transformation          0.01 sec ( 6217.0 MFLOP/sec)
 CPU time for sorting                             0.03 sec
 CPU time for fitting                             0.02 sec (56971.3 MFLOP/sec)
 CPU time for tilde quantities                    0.03 sec (50348.4 MFLOP/sec)
 CPU time for assembly                            0.25 sec (49414.4 MFLOP/sec)
 CPU time for tranop_f12                          0.32 sec (49563.2 MFLOP/sec)
 CPU time for f12 integrals (total)               5.33 sec, Elapsed time:      5.73 sec
 CPU time for f12 matrices (total)                0.14 sec, Elapsed time:      0.18 sec

 Diagonal F12 approximation with fixed coefficients:  TSING= 0.500,  TTRIP= 0.250 (scaled by -1/beta)

 DF-MP2-F12 energy corrections:
 ==============================
 Approx.                                    Singlet             Triplet             Total
 DF-MP2-F12/3*C(DX,FIX)                -0.038287479895     -0.004212635811     -0.042500115706
 DF-MP2-F12/3*C(FIX)                   -0.036088657886     -0.003930892083     -0.040019549969
 DF-MP2-F12/3C(FIX)                    -0.036031360506     -0.004065865762     -0.040097226269

 DF-MP2-F12 correlation energies:
 ================================
 Approx.                                    Singlet             Triplet             Ecorr            Total Energy
 DF-MP2                                -0.291095463356     -0.152363638186     -0.443459101542   -115.543593754616
 DF-MP2-F12/3*C(DX,FIX)                -0.329382943251     -0.156576273997     -0.485959217248   -115.586093870322
 DF-MP2-F12/3*C(FIX)                   -0.327184121242     -0.156294530269     -0.483478651511   -115.583613304585
 DF-MP2-F12/3C(FIX)                    -0.327126823862     -0.156429503948     -0.483556327811   -115.583690980884

 SCS-DF-MP2 energies (F_SING= 1.20000  F_TRIP= 0.62222  F_PARALLEL= 0.33333):
 ============================================================================
 SCS-DF-MP2                            -0.444118597565   -115.544253250639
 SCS-DF-MP2-F12/3*C(DX,FIX)            -0.492684769055   -115.592819422129
 SCS-DF-MP2-F12/3*C(FIX)               -0.489870875435   -115.590005528509
 SCS-DF-MP2-F12/3C(FIX)                -0.489886102203   -115.590020755277
 Symmetry transformation completed.

 Number of N-1 electron functions:               7
 Number of N-2 electron functions:              28
 Number of singly external CSFs:              1183
 Number of doubly external CSFs:            700336
 Total number of CSFs:                      701520

 Length of J-op  integral file:             105.23 MB
 Length of K-op  integral file:             138.67 MB
 Length of 3-ext integral record:             0.00 MB

 Memory could be reduced to 48.01 Mwords without degradation in triples

 Integral transformation finished. Total CPU:   3.67 sec, npass=  1  Memory used:  24.86 MW

 Reference energy:                   -115.10013465

 Adding F12 terms to K(Cij), methodcc=6,  factor= 1.0

 ITER.      SQ.NORM     CORR.ENERGY   TOTAL ENERGY   ENERGY CHANGE        DEN1      VAR(S)    VAR(P)  DIIS     TIME  TIME/IT
   1      1.11762304    -0.45285830  -115.55299295    -0.00933280     0.00166850  0.15D-02  0.19D-02  1  1    14.28     5.14
   2      1.12503263    -0.45322013  -115.55335478    -0.00036183    -0.00904639  0.24D-04  0.23D-03  2  2    17.61     9.05
   3      1.12776213    -0.45339755  -115.55353220    -0.00017742    -0.00186511  0.15D-04  0.13D-04  3  3    20.94     9.83
   4      1.12870937    -0.45341543  -115.55355008    -0.00001788    -0.00060017  0.86D-06  0.12D-05  4  4    24.15     8.67
   5      1.12886491    -0.45341698  -115.55355163    -0.00000156    -0.00003791  0.23D-06  0.10D-06  5  5    27.50     9.23
   6      1.12890748    -0.45341463  -115.55354928     0.00000235    -0.00000422  0.36D-07  0.96D-08  6  6    30.83     8.61
   7      1.12891861    -0.45341375  -115.55354841     0.00000087    -0.00000298  0.39D-08  0.14D-08  6  1    34.03     7.87
   8      1.12892041    -0.45341381  -115.55354847    -0.00000006     0.00000033  0.67D-09  0.20D-09  6  3    37.28     7.32

 Norm of t1 vector:      0.05000715      S-energy:     0.00000010      T1 diagnostic:  0.00945046
                                                                       D1 diagnostic:  0.02003547

 Adding energy correction from Wij-K(Fij), methodcc=6  factor= 1.0

  CCSD correlation energy              -0.453413814159
  MP2-F12 correction (uncoupled)       -0.038545562429
  C*T doubles correction               -0.001164888372
  f12b correction                       0.007098773901


 Total CPU time for triples:     39.65 sec


 RESULTS
 =======

  Reference energy                   -115.098781014330
  F12 singles correction               -0.001353638743

 F12 singles corrections added to reference energy

  New reference energy               -115.100134653074

  F12a singlet correction              -0.035791879657
  F12a triplet correction              -0.003918571144
  F12a total correction                -0.039710450801

 F12a corrections for ansatz F12/3C(FIX) added to CCSD energy

  CCSD-F12a singlet pair energy        -0.351209393922
  CCSD-F12a triplet pair energy        -0.141914974248
  CCSD-F12a correlation energy         -0.493124264960

  Triples (T) contribution             -0.016014522964
  Total correlation energy             -0.509138787924

  CCSD-F12a total energy             -115.593258918034
  CCSD[T]-F12a energy                -115.609826535939
  CCSD-T-F12a energy                 -115.609029708860
 !CCSD(T)-F12a total energy          -115.609273440998

 F12b corrections for ansatz F12/3C(FIX) added to CCSD(T)-F12a energy

  CCSD-F12b singlet pair energy        -0.344572700839
  CCSD-F12b triplet pair energy        -0.141452893430
  CCSD-F12b correlation energy         -0.486025491059

  Triples (T) contribution             -0.016014522964
  Total correlation energy             -0.502040014023

  CCSD-F12b total energy             -115.586160144133
  CCSD[T]-F12b energy                -115.602727762038
  CCSD-T-F12b energy                 -115.601930934959
 !CCSD(T)-F12b total energy          -115.602174667097

 Timing summary (sec):

 STEP                 CPU(USER)    SYS     CPU(TOT)    WALL
 Transformation          3.72      1.13      4.85     44.24
 CCSD iterations        26.23      2.05     28.28     59.56
 Triples                39.65      0.85     40.50     41.01
 MP2-F12                 7.34      0.50      7.84      9.09
 F12b energy             2.60      0.11      2.71      2.97

 Program statistics:

 Available memory in ccsd:               499999646
 Min. memory needed in ccsd:               2228017
 Max. memory used in ccsd:                 2807120
 Max. memory used in cckext:               2027429 ( 9 integral passes)



 **********************************************************************************************************************************
 DATASETS  * FILE   NREC   LENGTH (MB)   RECORD NAMES
              1      20      700.01       500      610      700      900      950      970     1000      129      960     1100   
                                          VAR    BASINP    GEOM    SYMINP    ZMAT    AOBASIS   BASIS     P2S    ABASIS      S 
                                         1400     1410     1200     1210     1080     1600     1650     1300     1700     1380   
                                           T        V       H0       H01     AOSYM     SMH    MOLCAS    ERIS     OPER     JKOP   

              2       7        4.13       700     1000      520     2100     7360     7350     7000   
                                         GEOM     BASIS   MCVARS     RHF    F12ABS    EF12   

 PROGRAMS   *        TOTAL   CCSD(T)   MP2-F12    HF-SCF       INT
 CPU TIMES  *       107.44     79.57      9.33      9.52      8.88
 REAL TIME  *       475.39 SEC
 DISK USED  *         2.14 GB
 **********************************************************************************************************************************
 SETTING XXX            =    "MMM"
 SETTING POINT          =       116.00000000                                  

 *** ### CH3OH


 XXX       RCO          ROH          RCH1         RCH2         RCH3           ACOH           AOCH1          AOCH2          AOCH3         AHH1           AHH2           AHH3            ENERGY        POINT
 "MMM"   1.42077677   0.96013932   1.09173387   1.08440138   1.09169997   108.12930637   111.64439934   107.18773759   111.65979212   62.13364279   180.70000000   299.26635721   -115.60927344   116.0000
                                                  

 CCSD(T)-F12/cc-pVTZ-F12 energy=   -115.602174667097

     CCSD(T)-F12         MP2-F12          HF-SCF
   -115.60217467   -115.58375598   -115.09878101
 **********************************************************************************************************************************
 Molpro calculation terminated
