
 Primary working directories    : /tmpdir/job/2955657.undefined/molpro.5p3wR9ZQrc
 Secondary working directories  : /tmpdir/job/2955657.undefined/molpro.5p3wR9ZQrc
 Wavefunction directory         : /home/zcaposm/wfu/
 Main file repository           : /tmpdir/job/2955657.undefined/molpro.5p3wR9ZQrc/

 id        : uclcc

 Nodes                         nprocs
 node-d00a-106.myriad.ucl.ac.uk    1

 Using customized tuning parameters: mindgm=1; mindgv=20; mindgc=4; mindgr=1; noblas=0; minvec=7
 default implementation of scratch files=df  


 Variables initialized (945), CPU time= 0.01 sec
 ***,Methanol Ground State Energy with CCSD(T)-F12 and cc-pVTZ-F12
 memory,500,m;
 
 geometry={angstrom
 c
 o , 1, rco
 h , 2, roh, 1, acoh
 h1, 1, rch1, 2, aoch1  3  ahh1
 h2, 1, rch2, 2, aoch2, 3, ahh2
 h3, 1, rch3, 2, aoch3, 3, ahh3
 }
 
                                                ! Specify the initial values of the internal coordinates (in Angstroms and degrees)
 
 rco= 1.42077677
 roh= 0.96013932
 rch1= 1.091717515605
 rch2= 1.08440070258
 rch3= 1.091717515605
 acoh= 108.12930637
 aoch1= 111.6522152299
 aoch2= 107.18733878260001
 aoch3= 111.6522152299
 ahh1=61.433642790000015
 ahh2=179.79587585476807
 ahh3=298.7704813552319
 
                                                                                 ! Use the cc-pVTZ-F12 basis set
 basis=cc-pVTZ-F12
 
 hf
 
                                                                                 ! Use explicitly correlated F12 methods
                                                                            ! First, MP2-F12 (useful for initial electronic energy)
 {mp2-f12}
 
                                                                        ! If desired, perform CCSD(T)-F12 for more accurate results
 {ccsd(t)-f12}
 
                                                                                 ! Output the energy
 xxx = "mmm"
 point = 88
 text ### CH3OH
 table,xxx,rco,roh,rch1,rch2,rch3,acoh,aoch1,aoch2,aoch3,ahh1,ahh2,ahh3,energy,point
 DIGITS, 0, 8, 8, 8, 8, 8, 8, 8, 8, 8,  8,  8,  8, 8, 4
 save,CH3OH_MEP_MP2_88.dat,new
 
 Commands  initialized (802), CPU time= 0.00 sec, 659 directives.
 Default parameters read. Elapsed time= 0.94 sec

 Checking input...
 Passed
1


                                         ***  PROGRAM SYSTEM MOLPRO  ***
                                       Copyright, TTI GmbH Stuttgart, 2015
                                    Version 2020.1 linked Oct  6 2020 12:04:11


 **********************************************************************************************************************************
 LABEL *   Methanol Ground State Energy with CCSD(T)-F12 and cc-pVTZ-F12                 
  64 bit serial version                                                                  DATE: 08-Oct-24          TIME: 17:30:48  
 **********************************************************************************************************************************

 SHA1:             8c27446f6450a7499e38f603e13c65f775101d37
 **********************************************************************************************************************************

 Memory per process:       500 MW
 Total memory per node:    500 MW

 GA preallocation disabled
 GA check disabled

 Variable memory set to 500.0 MW

 SETTING RCO            =         1.42077677                                  
 SETTING ROH            =         0.96013932                                  
 SETTING RCH1           =         1.09171752                                  
 SETTING RCH2           =         1.08440070                                  
 SETTING RCH3           =         1.09171752                                  
 SETTING ACOH           =       108.12930637                                  
 SETTING AOCH1          =       111.65221523                                  
 SETTING AOCH2          =       107.18733878                                  
 SETTING AOCH3          =       111.65221523                                  
 SETTING AHH1           =        61.43364279                                  
 SETTING AHH2           =       179.79587585                                  
 SETTING AHH3           =       298.77048136                                  
 SETTING BASIS          =    CC-PVTZ-F12


 Recomputing integrals since basis changed


 Using spherical harmonics

 Library entry C      S cc-pVTZ-F12          selected for orbital group  1
 Library entry C      P cc-pVTZ-F12          selected for orbital group  1
 Library entry C      D cc-pVTZ-F12          selected for orbital group  1
 Library entry C      F cc-pVTZ-F12          selected for orbital group  1
 Library entry O      S cc-pVTZ-F12          selected for orbital group  2
 Library entry O      P cc-pVTZ-F12          selected for orbital group  2
 Library entry O      D cc-pVTZ-F12          selected for orbital group  2
 Library entry O      F cc-pVTZ-F12          selected for orbital group  2
 Library entry H      S cc-pVTZ-F12          selected for orbital group  3
 Library entry H      P cc-pVTZ-F12          selected for orbital group  3
 Library entry H      D cc-pVTZ-F12          selected for orbital group  3


 PROGRAM * SEWARD (Integral evaluation for generally contracted gaussian basis sets)     Author: Roland Lindh, 1990

 Geometry written to block  1 of record 700

 Orientation using atomic masses  
 Molecule type: Asymmetric top
 Rotational constants:      23.9551764     24.8124657    128.7745167 GHz  (calculated with average atomic masses)

 Point group  C1  



 ATOMIC COORDINATES

 NR  ATOM    CHARGE       X              Y              Z

   1  C       6.00   -0.000627132    0.024713906   -1.376607310
   2  O       8.00   -0.000799885   -0.121963470    1.304262111
   3  H       1.00    0.012580458    1.568893653    1.962192054
   4  H1      1.00    1.690558311    0.968705898   -2.087194598
   5  H2      1.00   -0.008846259   -1.896973660   -2.088192396
   6  H3      1.00   -1.674122493    1.000844441   -2.085653031

 Bond lengths in Bohr (Angstrom)

 1-2  2.684878979  1-4  2.063047110  1-5  2.049220337  1-6  2.063047110  2-3  1.814400356
     ( 1.420776770)     ( 1.091717516)     ( 1.084400703)     ( 1.091717516)     ( 0.960139320)

 Bond angles

  1-2-3  108.12930637   2-1-4  111.65221523   2-1-5  107.18733878   2-1-6  111.65221523

  4-1-5  108.22675758   4-1-6  109.27389225   5-1-6  108.72978021

 NUCLEAR CHARGE:                   18
 NUMBER OF PRIMITIVE AOS:         228
 NUMBER OF SYMMETRY AOS:          206
 NUMBER OF CONTRACTIONS:          178   (  178A   )
 NUMBER OF INNER CORE ORBITALS:     0   (    0A   )
 NUMBER OF OUTER CORE ORBITALS:     2   (    2A   )
 NUMBER OF VALENCE ORBITALS:       12   (   12A   )


 NUCLEAR REPULSION ENERGY   40.34562585

 Eigenvalues of metric

         1 0.879E-04 0.183E-03 0.309E-03 0.323E-03 0.460E-03 0.493E-03 0.560E-03 0.570E-03


 Contracted 2-electron integrals neglected if value below      1.0D-11
 AO integral compression algorithm  1   Integral accuracy      1.0D-11

     603.718 MB (compressed) written to integral file ( 50.6%)


 NUMBER OF SORTED TWO-ELECTRON INTEGRALS:  126906346.     BUFFER LENGTH:  32768
 NUMBER OF SEGMENTS:   8  SEGMENT LENGTH:   15999503      RECORD LENGTH: 524288

 Memory used in sort:      16.56 MW

 SORT1 READ   149034713. AND WROTE   124703709. INTEGRALS IN    360 RECORDS. CPU TIME:     3.86 SEC, REAL TIME:   116.61 SEC
 SORT2 READ   124703709. AND WROTE   126906346. INTEGRALS IN   2303 RECORDS. CPU TIME:     3.15 SEC, REAL TIME:   237.35 SEC

 FILE SIZES:   FILE 1:   634.9 MBYTE,  FILE 4:  1510.0 MBYTE,   TOTAL:   2144.9 MBYTE

 OPERATOR DM      FOR CENTER  0  COORDINATES:    0.000000    0.000000    0.000000


 **********************************************************************************************************************************
 DATASETS  * FILE   NREC   LENGTH (MB)   RECORD NAMES
              1      19      557.74       500      610      700      900      950      970     1000      129      960     1100   
                                          VAR    BASINP    GEOM    SYMINP    ZMAT    AOBASIS   BASIS     P2S    ABASIS      S 
                                         1400     1410     1200     1210     1080     1600     1650     1300     1700   
                                           T        V       H0       H01     AOSYM     SMH    MOLCAS    ERIS     OPER   

 PROGRAMS   *        TOTAL       INT
 CPU TIMES  *        12.39     12.19
 REAL TIME  *       399.25 SEC
 DISK USED  *         2.15 GB
 **********************************************************************************************************************************


 PROGRAM * RHF-SCF (CLOSED SHELL)       Authors: W. Meyer, H.-J. Werner


 NUMBER OF ELECTRONS:       9+    9-    SPACE SYMMETRY=1    SPIN SYMMETRY: Singlet 
 CONVERGENCE THRESHOLDS:    1.00E-05 (Density)    1.00E-07 (Energy)
 MAX. NUMBER OF ITERATIONS:       60
 INTERPOLATION TYPE:            DIIS
 INTERPOLATION STEPS:              2 (START)      1 (STEP)
 LEVEL SHIFTS:                  0.00 (CLOSED)  0.00 (OPEN) 



 Orbital guess generated from atomic densities. Full valence occupancy:   14

 Molecular orbital dump at record        2100.2

 Initial occupancy:   9

 ITERATION    DDIFF          GRAD             ENERGY        2-EL.EN.            DIPOLE MOMENTS         DIIS   ORB.
    1      0.000D+00      0.000D+00      -115.06237415    164.484247    0.00797    0.90475   -0.47807    0    start
    2      0.000D+00      0.506D-02      -115.09072787    161.902242    0.00439    0.49676   -0.30370    1    diag
    3      0.480D-02      0.277D-02      -115.09821411    163.165474    0.00517    0.60011   -0.39695    2    diag
    4      0.163D-02      0.546D-03      -115.09874654    162.988883    0.00509    0.59498   -0.39240    3    diag
    5      0.436D-03      0.110D-03      -115.09878095    163.000357    0.00504    0.59099   -0.39722    4    diag
    6      0.121D-03      0.205D-04      -115.09878251    162.998139    0.00504    0.59113   -0.39800    5    diag
    7      0.349D-04      0.434D-05      -115.09878258    162.997753    0.00504    0.59095   -0.39828    6    diag
    8      0.877D-05      0.114D-05      -115.09878259    162.998100    0.00504    0.59094   -0.39829    0    orth

 Final occupancy:   9

 !RHF STATE  1.1 Energy              -115.098782587335
 Nuclear energy                        40.34562585
 One-electron energy                 -236.94345861
 Two-electron energy                   81.49905018
 Virial quotient                       -1.00101579
 !RHF STATE  1.1 Dipole moment          0.00503685     0.59094180    -0.39829144
 Dipole moment /Debye                   0.01280156     1.50192585    -1.01228955

 Orbital energies:

         1.1          2.1          3.1          4.1          5.1          6.1          7.1          8.1          9.1         10.1
    -20.556342   -11.269770    -1.356929    -0.926362    -0.690931    -0.621372    -0.594399    -0.504526    -0.452049     0.054627

        11.1
      0.065013


 HOMO      9.1    -0.452049 =     -12.3009eV
 LUMO     10.1     0.054627 =       1.4865eV
 LUMO-HOMO         0.506675 =      13.7873eV


 **********************************************************************************************************************************
 DATASETS  * FILE   NREC   LENGTH (MB)   RECORD NAMES
              1      19      557.74       500      610      700      900      950      970     1000      129      960     1100   
                                          VAR    BASINP    GEOM    SYMINP    ZMAT    AOBASIS   BASIS     P2S    ABASIS      S 
                                         1400     1410     1200     1210     1080     1600     1650     1300     1700   
                                           T        V       H0       H01     AOSYM     SMH    MOLCAS    ERIS     OPER   

              2       4        3.48       700     1000      520     2100   
                                         GEOM     BASIS   MCVARS     RHF  

 PROGRAMS   *        TOTAL    HF-SCF       INT
 CPU TIMES  *        21.26      8.87     12.19
 REAL TIME  *       450.88 SEC
 DISK USED  *         2.15 GB
 **********************************************************************************************************************************


 PROGRAM * MP2 (Closed-shell)     Authors: C. Hampel, H.-J. Werner, 1991, M. Deegan, P.J. Knowles, 1992

                                   MP2-F12 implementation by H.-J. Werner, 2007

                   Density fitting integral evaluation by F.R. Manby, 2003,2007, G. Knizia, 2010


 Basis set AUG-CC-PVTZ/JKFIT generated.  Number of basis functions:   392 
 Basis set CC-PVTZ-F12/OPTRI generated.  Number of basis functions:   314 
 Basis set AUG-CC-PVTZ/MP2FIT generated. Number of basis functions:   396 

 Convergence thresholds:  THRVAR = 1.00D-08  THRDEN = 1.00D-06

 Number of core orbitals:           2 (   2 )
 Number of closed-shell orbitals:   7 (   7 )
 Number of external orbitals:     169 ( 169 )

 Molecular orbitals read from record     2100.2  Type=RHF/CANONICAL (state 1.1)

 MP2-F12 correlation treatment (H.-J. Werner, 2006)
 ==================================================

 Using MP2-F12 with ansatz 3C(FIX)

 Using projected zeroth-order Hamiltonian (+Z)

 FOCKRIB=T FOCKRIC=T FOCKRIP=T CABSP=T CABSA=T CABSK=T CABSF=T GBC=F EBC=F DMAT=T NOFIK=T NOPAO=1 SOLVE=-1  USEPAO=0
 EXCH_A= T EXCH_B= F EXCH_C= F EXCH_P= F

 Geminal basis:    OPTFULL  GEM_TYPE=SLATER  BETA=1.0  NGEM=6

 Optimizing Gaussian exponents for each gem_beta

 Geminal optimization for beta= 1.0000
 Weight function:   m=0, omega= 1.4646

 Augmented Hessian optimization of geminal fit. Trust ratio= 0.40000
 Convergence reached after   2 iterations. Final gradient= 8.66D-16, Step= 4.23D-06, Delta= 1.28D-09

 Alpha:                 0.19532     0.81920     2.85917     9.50073    35.69989   197.79328
 Coeff:                 0.27070     0.30552     0.18297     0.10986     0.06810     0.04224


 All pairs explicitly correlated. Number of r12-pairs:           28

 Excluding core orbitals from MO domains

 AO(A)-basis ORBITAL           loaded. Number of functions:     178
 RI(R)-basis CC-PVTZ-F12/OPTRI loaded. Number of functions:     314
 DF-basis AUG-CC-PVTZ/JKFIT    loaded. Number of functions:     392

 Screening thresholds:   THRAO=  1.00D-10  THRMO=  1.00D-09  THRPROD=  1.00D-09
                         THRSW=  1.00D-05  THROV=  1.00D-12  THRAOF12= 1.00D-08

 CPU time for Fock operators                      1.81 sec

 Construction of ABS:
 Smallest eigenvalue of S          4.35E-04  (threshold= 1.00E-08)
 Ratio eigmin/eigmax               5.55E-05  (threshold= 1.00E-09)
 Smallest eigenvalue of S kept     4.35E-04  (threshold= 4.35E-04, 0 functions deleted, 314 kept)

 Construction of CABS:
 Smallest eigenvalue of S          7.26E-07  (threshold= 1.00E-08)
 Ratio eigmin/eigmax               7.26E-07  (threshold= 1.00E-09)
 Smallest eigenvalue of S kept     7.26E-07  (threshold= 7.26E-07, 0 functions deleted, 314 kept)

 CPU time for CABS singles                        0.05 sec

 CABS-singles contribution of  -0.00135365 patched into reference energy.
 New reference energy        -115.10013624

 AO(A)-basis ORBITAL           loaded. Number of functions:     178
 RI(R)-basis CC-PVTZ-F12/OPTRI loaded. Number of functions:     314
 DF-basis AUG-CC-PVTZ/MP2FIT   loaded. Number of functions:     396

 Screening thresholds:   THRAO=  1.00D-10  THRMO=  1.00D-09  THRPROD=  1.00D-09
                         THRSW=  1.00D-05  THROV=  1.00D-12  THRAOF12= 1.00D-08

 CPU time for 3-index integral evaluation         3.74 sec
 CPU time for first  half transformation          0.27 sec ( 9144.6 MFLOP/sec)
 CPU time for second half transformation          0.02 sec ( 3108.5 MFLOP/sec)
 CPU time for sorting                             0.03 sec
 CPU time for fitting                             0.02 sec (56971.3 MFLOP/sec)
 CPU time for tilde quantities                    0.05 sec (30209.0 MFLOP/sec)
 CPU time for assembly                            0.23 sec (53711.3 MFLOP/sec)
 CPU time for tranop_f12                          0.28 sec (56643.7 MFLOP/sec)
 CPU time for f12 integrals (total)               5.11 sec, Elapsed time:     14.27 sec
 CPU time for f12 matrices (total)                0.12 sec, Elapsed time:      1.08 sec

 Diagonal F12 approximation with fixed coefficients:  TSING= 0.500,  TTRIP= 0.250 (scaled by -1/beta)

 DF-MP2-F12 energy corrections:
 ==============================
 Approx.                                    Singlet             Triplet             Total
 DF-MP2-F12/3*C(DX,FIX)                -0.038287464288     -0.004212622770     -0.042500087057
 DF-MP2-F12/3*C(FIX)                   -0.036088620963     -0.003930878714     -0.040019499677
 DF-MP2-F12/3C(FIX)                    -0.036031335325     -0.004065853438     -0.040097188763

 DF-MP2-F12 correlation energies:
 ================================
 Approx.                                    Singlet             Triplet             Ecorr            Total Energy
 DF-MP2                                -0.291095134788     -0.152362426091     -0.443457560878   -115.543593800342
 DF-MP2-F12/3*C(DX,FIX)                -0.329382599075     -0.156575048860     -0.485957647936   -115.586093887400
 DF-MP2-F12/3*C(FIX)                   -0.327183755751     -0.156293304805     -0.483477060556   -115.583613300020
 DF-MP2-F12/3C(FIX)                    -0.327126470113     -0.156428279529     -0.483554749642   -115.583690989106

 SCS-DF-MP2 energies (F_SING= 1.20000  F_TRIP= 0.62222  F_PARALLEL= 0.33333):
 ============================================================================
 SCS-DF-MP2                            -0.444117449091   -115.544253688555
 SCS-DF-MP2-F12/3*C(DX,FIX)            -0.492683593737   -115.592819833201
 SCS-DF-MP2-F12/3*C(FIX)               -0.489869674335   -115.590005913799
 SCS-DF-MP2-F12/3C(FIX)                -0.489884915842   -115.590021155306
 Symmetry transformation completed.

 Number of N-1 electron functions:               7
 Number of N-2 electron functions:              28
 Number of singly external CSFs:              1183
 Number of doubly external CSFs:            700336
 Total number of CSFs:                      701520

 Length of J-op  integral file:             104.98 MB
 Length of K-op  integral file:             138.67 MB

 Integral transformation finished. Total CPU:   1.39 sec, npass=  1  Memory used:   2.18 MW

 ITER.      SQ.NORM     CORR.ENERGY   TOTAL ENERGY   ENERGY CHANGE     VAR   MIC
   1      1.00000000    -0.44352396  -115.54366020    -0.44352396  0.00D+00   0
   2      1.11473478    -0.44352396  -115.54366020    -0.00000000  0.78D-17   0

 Solving MP2-F12 equations

   1      1.11469847    -0.48286308  -115.58299931    -0.03933911 -0.37D-04   0
   2      1.11469847    -0.48361975  -115.58375599    -0.00075667 -0.85D-18   0
   3      1.11469847    -0.48361975  -115.58375599     0.00000000  0.22D-19   0

 CPU TIME FOR ITERATIVE MP2:    0.13 SEC


 MP2-F12 energy corrections:
 ===========================
 Approx.                                    Singlet             Triplet             Total
 MP2-F12/3*C(DX,FIX)                   -0.038287464288     -0.004212622770     -0.042500087057
 MP2-F12/3*C(FIX)                      -0.036088620963     -0.003930878714     -0.040019499677
 MP2-F12/3C(FIX)                       -0.036028635154     -0.004067149654     -0.040095784809

 MP2-F12 correlation energies:
 =============================
 Approx.                                    Singlet             Triplet             Ecorr            Total Energy
 MP2                                   -0.291278449253     -0.152245512343     -0.443523961596   -115.543660201060
 MP2-F12/3*C(DX,FIX)                   -0.329565913541     -0.156458135113     -0.486024048654   -115.586160288118
 MP2-F12/3*C(FIX)                      -0.327367070216     -0.156176391057     -0.483543461274   -115.583679700738
 MP2-F12/3C(FIX)                       -0.327307084408     -0.156312661998     -0.483619746405   -115.583755985869

 SCS-MP2 energies (F_SING= 1.20000  F_TRIP= 0.62222  F_PARALLEL= 0.33333):
 =========================================================================
 SCS-MP2                               -0.444264680117   -115.544400919581
 SCS-MP2-F12/3*C(DX,FIX)               -0.492830824764   -115.592967064228
 SCS-MP2-F12/3*C(FIX)                  -0.490016905362   -115.590153144826
 SCS-MP2-F12/3C(FIX)                   -0.490029713199   -115.590165952663


  Reference energy                   -115.098782587335
  F12 singles correction               -0.001353652129

 F12 singles corrections added to reference energy

  New reference energy               -115.100136239464

  F12/3C(F) singlet correction         -0.036028635154
  F12/3C(F) triplet correction         -0.004067149654
  F12/3C(F) total correction           -0.040095784809
  MP2-F12/3C(F) singlet pair energy    -0.327307084408
  MP2-F12/3C(F) triplet pair energy    -0.156312661998
  MP2-F12/3C(F) correlation energy     -0.483619746405

 !MP2-F12/3C(F) total energy         -115.583755985869


 **********************************************************************************************************************************
 DATASETS  * FILE   NREC   LENGTH (MB)   RECORD NAMES
              1      20      568.91       500      610      700      900      950      970     1000      129      960     1100   
                                          VAR    BASINP    GEOM    SYMINP    ZMAT    AOBASIS   BASIS     P2S    ABASIS      S 
                                         1400     1410     1200     1210     1080     1600     1650     1300     1700     1380   
                                           T        V       H0       H01     AOSYM     SMH    MOLCAS    ERIS     OPER     JKOP   

              2       7        4.13       700     1000      520     2100     7360     7350     7000   
                                         GEOM     BASIS   MCVARS     RHF    F12ABS    EF12   

 PROGRAMS   *        TOTAL   MP2-F12    HF-SCF       INT
 CPU TIMES  *        30.23      8.95      8.87     12.19
 REAL TIME  *       483.60 SEC
 DISK USED  *         2.15 GB
 **********************************************************************************************************************************


 PROGRAM * CCSD (Closed-shell coupled cluster)     Authors: C. Hampel, H.-J. Werner, 1991, M. Deegan, P.J. Knowles, 1992

                                  CCSD-F12 implementation by  H.-J. Werner, 2007

                   Density fitting integral evaluation by F.R. Manby, 2003,2007, G. Knizia, 2010



 Convergence thresholds:  THRVAR = 1.00D-08  THRDEN = 1.00D-06

 CCSD(T)     terms to be evaluated (factor= 1.000)


 Number of core orbitals:           2 (   2 )
 Number of closed-shell orbitals:   7 (   7 )
 Number of external orbitals:     169 ( 169 )

 Molecular orbitals read from record     2100.2  Type=RHF/CANONICAL (state 1.1)

 MP2-F12 correlation treatment (H.-J. Werner, 2006)
 ==================================================

 Using MP2-F12 with ansatz 3C(FIX)

 Using projected zeroth-order Hamiltonian (+Z)

 FOCKRIB=T FOCKRIC=T FOCKRIP=T CABSP=T CABSA=T CABSK=T CABSF=T GBC=F EBC=F DMAT=T NOFIK=T NOPAO=1 SOLVE=-1  USEPAO=0
 EXCH_A= T EXCH_B= F EXCH_C= F EXCH_P= F

 Geminal basis:    OPTFULL  GEM_TYPE=SLATER  BETA=1.0  NGEM=6

 Optimizing Gaussian exponents for each gem_beta

 Geminal optimization for beta= 1.0000
 Weight function:   m=0, omega= 1.4646

 Augmented Hessian optimization of geminal fit. Trust ratio= 0.40000
 Convergence reached after   2 iterations. Final gradient= 8.66D-16, Step= 4.23D-06, Delta= 1.28D-09

 Alpha:                 0.19532     0.81920     2.85917     9.50073    35.69989   197.79328
 Coeff:                 0.27070     0.30552     0.18297     0.10986     0.06810     0.04224


 All pairs explicitly correlated. Number of r12-pairs:           28

 Excluding core orbitals from MO domains

 AO(A)-basis ORBITAL           loaded. Number of functions:     178
 RI(R)-basis CC-PVTZ-F12/OPTRI loaded. Number of functions:     314
 DF-basis AUG-CC-PVTZ/JKFIT    loaded. Number of functions:     392

 Screening thresholds:   THRAO=  1.00D-10  THRMO=  1.00D-09  THRPROD=  1.00D-09
                         THRSW=  1.00D-05  THROV=  1.00D-12  THRAOF12= 1.00D-08

 CPU time for Fock operators                      1.60 sec

 Construction of ABS:
 Smallest eigenvalue of S          4.35E-04  (threshold= 1.00E-08)
 Ratio eigmin/eigmax               5.55E-05  (threshold= 1.00E-09)
 Smallest eigenvalue of S kept     4.35E-04  (threshold= 4.35E-04, 0 functions deleted, 314 kept)

 Construction of CABS:
 Smallest eigenvalue of S          7.26E-07  (threshold= 1.00E-08)
 Ratio eigmin/eigmax               7.26E-07  (threshold= 1.00E-09)
 Smallest eigenvalue of S kept     7.26E-07  (threshold= 7.26E-07, 0 functions deleted, 314 kept)

 CPU time for CABS singles                        0.05 sec

 CABS-singles contribution of  -0.00135365 patched into reference energy.
 New reference energy        -115.10013624

 AO(A)-basis ORBITAL           loaded. Number of functions:     178
 RI(R)-basis CC-PVTZ-F12/OPTRI loaded. Number of functions:     314
 DF-basis AUG-CC-PVTZ/MP2FIT   loaded. Number of functions:     396

 Screening thresholds:   THRAO=  1.00D-10  THRMO=  1.00D-09  THRPROD=  1.00D-09
                         THRSW=  1.00D-05  THROV=  1.00D-12  THRAOF12= 1.00D-08

 CPU time for 3-index integral evaluation         3.38 sec
 CPU time for first  half transformation          0.29 sec ( 8514.0 MFLOP/sec)
 CPU time for second half transformation          0.04 sec ( 1554.3 MFLOP/sec)
 CPU time for sorting                             0.02 sec
 CPU time for fitting                             0.01 sec (******* MFLOP/sec)
 CPU time for tilde quantities                    0.03 sec (50348.4 MFLOP/sec)
 CPU time for assembly                            0.25 sec (49414.4 MFLOP/sec)
 CPU time for tranop_f12                          0.29 sec (54690.4 MFLOP/sec)
 CPU time for f12 integrals (total)               4.78 sec, Elapsed time:      5.33 sec
 CPU time for f12 matrices (total)                0.11 sec, Elapsed time:      0.20 sec

 Diagonal F12 approximation with fixed coefficients:  TSING= 0.500,  TTRIP= 0.250 (scaled by -1/beta)

 DF-MP2-F12 energy corrections:
 ==============================
 Approx.                                    Singlet             Triplet             Total
 DF-MP2-F12/3*C(DX,FIX)                -0.038287464288     -0.004212622770     -0.042500087057
 DF-MP2-F12/3*C(FIX)                   -0.036088620963     -0.003930878714     -0.040019499677
 DF-MP2-F12/3C(FIX)                    -0.036031335325     -0.004065853438     -0.040097188763

 DF-MP2-F12 correlation energies:
 ================================
 Approx.                                    Singlet             Triplet             Ecorr            Total Energy
 DF-MP2                                -0.291095134788     -0.152362426091     -0.443457560878   -115.543593800342
 DF-MP2-F12/3*C(DX,FIX)                -0.329382599075     -0.156575048860     -0.485957647936   -115.586093887400
 DF-MP2-F12/3*C(FIX)                   -0.327183755751     -0.156293304805     -0.483477060556   -115.583613300020
 DF-MP2-F12/3C(FIX)                    -0.327126470113     -0.156428279529     -0.483554749642   -115.583690989106

 SCS-DF-MP2 energies (F_SING= 1.20000  F_TRIP= 0.62222  F_PARALLEL= 0.33333):
 ============================================================================
 SCS-DF-MP2                            -0.444117449091   -115.544253688555
 SCS-DF-MP2-F12/3*C(DX,FIX)            -0.492683593737   -115.592819833201
 SCS-DF-MP2-F12/3*C(FIX)               -0.489869674335   -115.590005913799
 SCS-DF-MP2-F12/3C(FIX)                -0.489884915842   -115.590021155306
 Symmetry transformation completed.

 Number of N-1 electron functions:               7
 Number of N-2 electron functions:              28
 Number of singly external CSFs:              1183
 Number of doubly external CSFs:            700336
 Total number of CSFs:                      701520

 Length of J-op  integral file:             105.23 MB
 Length of K-op  integral file:             138.67 MB
 Length of 3-ext integral record:             0.00 MB

 Memory could be reduced to 48.01 Mwords without degradation in triples

 Integral transformation finished. Total CPU:   3.61 sec, npass=  1  Memory used:  24.86 MW

 Reference energy:                   -115.10013624

 Adding F12 terms to K(Cij), methodcc=6,  factor= 1.0

 ITER.      SQ.NORM     CORR.ENERGY   TOTAL ENERGY   ENERGY CHANGE        DEN1      VAR(S)    VAR(P)  DIIS     TIME  TIME/IT
   1      1.11762227    -0.45285700  -115.55299324    -0.00933304     0.00166839  0.15D-02  0.19D-02  1  1    13.99    16.65
   2      1.12503192    -0.45321880  -115.55335504    -0.00036180    -0.00904647  0.24D-04  0.23D-03  2  2    17.00    12.74
   3      1.12776142    -0.45339621  -115.55353245    -0.00017741    -0.00186510  0.15D-04  0.13D-04  3  3    20.17    12.32
   4      1.12870869    -0.45341409  -115.55355033    -0.00001788    -0.00060019  0.86D-06  0.12D-05  4  4    23.12    10.58
   5      1.12886425    -0.45341564  -115.55355188    -0.00000155    -0.00003791  0.23D-06  0.10D-06  5  5    25.99     9.20
   6      1.12890683    -0.45341329  -115.55354953     0.00000235    -0.00000423  0.36D-07  0.96D-08  6  6    28.91     8.21
   7      1.12891796    -0.45341241  -115.55354865     0.00000087    -0.00000298  0.40D-08  0.14D-08  6  1    31.82     7.48
   8      1.12891976    -0.45341248  -115.55354872    -0.00000006     0.00000034  0.67D-09  0.20D-09  6  3    34.71     6.93

 Norm of t1 vector:      0.05000909      S-energy:     0.00000010      T1 diagnostic:  0.00945083
                                                                       D1 diagnostic:  0.02003711

 Adding energy correction from Wij-K(Fij), methodcc=6  factor= 1.0

  CCSD correlation energy              -0.453412475610
  MP2-F12 correction (uncoupled)       -0.038545468956
  C*T doubles correction               -0.001164930216
  f12b correction                       0.007098768668


 Total CPU time for triples:     37.16 sec


 RESULTS
 =======

  Reference energy                   -115.098782587335
  F12 singles correction               -0.001353652129

 F12 singles corrections added to reference energy

  New reference energy               -115.100136239464

  F12a singlet correction              -0.035791842753
  F12a triplet correction              -0.003918556420
  F12a total correction                -0.039710399173

 F12a corrections for ansatz F12/3C(FIX) added to CCSD energy

  CCSD-F12a singlet pair energy        -0.351209054635
  CCSD-F12a triplet pair energy        -0.141913924706
  CCSD-F12a correlation energy         -0.493122874783

  Triples (T) contribution             -0.016014468271
  Total correlation energy             -0.509137343053

  CCSD-F12a total energy             -115.593259114247
  CCSD[T]-F12a energy                -115.609826697473
  CCSD-T-F12a energy                 -115.609029841892
 !CCSD(T)-F12a total energy          -115.609273582517

 F12b corrections for ansatz F12/3C(FIX) added to CCSD(T)-F12a energy

  CCSD-F12b singlet pair energy        -0.344572362533
  CCSD-F12b triplet pair energy        -0.141451848139
  CCSD-F12b correlation energy         -0.486024106114

  Triples (T) contribution             -0.016014468271
  Total correlation energy             -0.502038574385

  CCSD-F12b total energy             -115.586160345578
  CCSD[T]-F12b energy                -115.602727928804
  CCSD-T-F12b energy                 -115.601931073223
 !CCSD(T)-F12b total energy          -115.602174813849

 Timing summary (sec):

 STEP                 CPU(USER)    SYS     CPU(TOT)    WALL
 Transformation          3.67      1.27      4.94     28.24
 CCSD iterations        24.37      2.71     27.08     56.90
 Triples                37.16      0.90     38.06     40.13
 MP2-F12                 6.70      0.41      7.11      8.55
 F12b energy             2.37      0.10      2.47      2.66

 Program statistics:

 Available memory in ccsd:               499999646
 Min. memory needed in ccsd:               2228017
 Max. memory used in ccsd:                 2807120
 Max. memory used in cckext:               2027429 ( 9 integral passes)



 **********************************************************************************************************************************
 DATASETS  * FILE   NREC   LENGTH (MB)   RECORD NAMES
              1      20      704.86       500      610      700      900      950      970     1000      129      960     1100   
                                          VAR    BASINP    GEOM    SYMINP    ZMAT    AOBASIS   BASIS     P2S    ABASIS      S 
                                         1400     1410     1200     1210     1080     1600     1650     1300     1700     1380   
                                           T        V       H0       H01     AOSYM     SMH    MOLCAS    ERIS     OPER     JKOP   

              2       7        4.13       700     1000      520     2100     7360     7350     7000   
                                         GEOM     BASIS   MCVARS     RHF    F12ABS    EF12   

 PROGRAMS   *        TOTAL   CCSD(T)   MP2-F12    HF-SCF       INT
 CPU TIMES  *       104.57     74.32      8.95      8.87     12.19
 REAL TIME  *       621.37 SEC
 DISK USED  *         2.15 GB
 **********************************************************************************************************************************
 SETTING XXX            =    "MMM"
 SETTING POINT          =        88.00000000                                  

 *** ### CH3OH


 XXX       RCO          ROH          RCH1         RCH2         RCH3           ACOH           AOCH1          AOCH2          AOCH3         AHH1           AHH2           AHH3            ENERGY       POINT
 "MMM"   1.42077677   0.96013932   1.09171752   1.08440070   1.09171752   108.12930637   111.65221523   107.18733878   111.65221523   61.43364279   179.79587585   298.77048136   -115.60927358   88.0000
                                                  

 CCSD(T)-F12/cc-pVTZ-F12 energy=   -115.602174813849

     CCSD(T)-F12         MP2-F12          HF-SCF
   -115.60217481   -115.58375599   -115.09878259
 **********************************************************************************************************************************
 Molpro calculation terminated
