
 Primary working directories    : /tmpdir/job/2955575.undefined/molpro.A4xEua0xx7
 Secondary working directories  : /tmpdir/job/2955575.undefined/molpro.A4xEua0xx7
 Wavefunction directory         : /home/zcaposm/wfu/
 Main file repository           : /tmpdir/job/2955575.undefined/molpro.A4xEua0xx7/

 id        : uclcc

 Nodes                         nprocs
 node-d00a-131.myriad.ucl.ac.uk    1

 Using customized tuning parameters: mindgm=1; mindgv=20; mindgc=4; mindgr=1; noblas=0; minvec=7
 default implementation of scratch files=df  


 Variables initialized (945), CPU time= 0.00 sec
 ***,Methanol Ground State Energy with CCSD(T)-F12 and cc-pVTZ-F12
 memory,500,m;
 
 geometry={angstrom
 c
 o , 1, rco
 h , 2, roh, 1, acoh
 h1, 1, rch1, 2, aoch1  3  ahh1
 h2, 1, rch2, 2, aoch2, 3, ahh2
 h3, 1, rch3, 2, aoch3, 3, ahh3
 }
 
                                                ! Specify the initial values of the internal coordinates (in Angstroms and degrees)
 
 rco= 1.45077677
 roh= 0.96013932
 rch1= 1.091717515605
 rch2= 1.08440070258
 rch3= 1.091717515605
 acoh= 108.12930637
 aoch1= 111.6522152299
 aoch2= 107.18733878260001
 aoch3= 111.6522152299
 ahh1=61.43364279
 ahh2=180.0
 ahh3=298.56635721
 
                                                                                 ! Use the cc-pVTZ-F12 basis set
 basis=cc-pVTZ-F12
 
 hf
 
                                                                                 ! Use explicitly correlated F12 methods
                                                                            ! First, MP2-F12 (useful for initial electronic energy)
 {mp2-f12}
 
                                                                        ! If desired, perform CCSD(T)-F12 for more accurate results
 {ccsd(t)-f12}
 
                                                                                 ! Output the energy
 xxx = "mmm"
 point = 12
 text ### CH3OH
 table,xxx,rco,roh,rch1,rch2,rch3,acoh,aoch1,aoch2,aoch3,ahh1,ahh2,ahh3,energy,point
 DIGITS, 0, 8, 8, 8, 8, 8, 8, 8, 8, 8,  8,  8,  8, 8, 4
 save,CH3OH_MEP_MP2_12.dat,new
 
 Commands  initialized (802), CPU time= 0.01 sec, 659 directives.
 Default parameters read. Elapsed time= 0.10 sec

 Checking input...
 Passed
1


                                         ***  PROGRAM SYSTEM MOLPRO  ***
                                       Copyright, TTI GmbH Stuttgart, 2015
                                    Version 2020.1 linked Oct  6 2020 12:04:11


 **********************************************************************************************************************************
 LABEL *   Methanol Ground State Energy with CCSD(T)-F12 and cc-pVTZ-F12                 
  64 bit serial version                                                                  DATE: 08-Oct-24          TIME: 17:11:36  
 **********************************************************************************************************************************

 SHA1:             8c27446f6450a7499e38f603e13c65f775101d37
 **********************************************************************************************************************************

 Memory per process:       500 MW
 Total memory per node:    500 MW

 GA preallocation disabled
 GA check disabled

 Variable memory set to 500.0 MW

 SETTING RCO            =         1.45077677                                  
 SETTING ROH            =         0.96013932                                  
 SETTING RCH1           =         1.09171752                                  
 SETTING RCH2           =         1.08440070                                  
 SETTING RCH3           =         1.09171752                                  
 SETTING ACOH           =       108.12930637                                  
 SETTING AOCH1          =       111.65221523                                  
 SETTING AOCH2          =       107.18733878                                  
 SETTING AOCH3          =       111.65221523                                  
 SETTING AHH1           =        61.43364279                                  
 SETTING AHH2           =       180.00000000                                  
 SETTING AHH3           =       298.56635721                                  
 SETTING BASIS          =    CC-PVTZ-F12


 Recomputing integrals since basis changed


 Using spherical harmonics

 Library entry C      S cc-pVTZ-F12          selected for orbital group  1
 Library entry C      P cc-pVTZ-F12          selected for orbital group  1
 Library entry C      D cc-pVTZ-F12          selected for orbital group  1
 Library entry C      F cc-pVTZ-F12          selected for orbital group  1
 Library entry O      S cc-pVTZ-F12          selected for orbital group  2
 Library entry O      P cc-pVTZ-F12          selected for orbital group  2
 Library entry O      D cc-pVTZ-F12          selected for orbital group  2
 Library entry O      F cc-pVTZ-F12          selected for orbital group  2
 Library entry H      S cc-pVTZ-F12          selected for orbital group  3
 Library entry H      P cc-pVTZ-F12          selected for orbital group  3
 Library entry H      D cc-pVTZ-F12          selected for orbital group  3


 PROGRAM * SEWARD (Integral evaluation for generally contracted gaussian basis sets)     Author: Roland Lindh, 1990

 Geometry written to block  1 of record 700

 Orientation using atomic masses  
 Molecule type: Asymmetric top
 Symmetry elements: X
 Rotational constants:      23.1549329     23.9482750    128.7608793 GHz  (calculated with average atomic masses)

 Point group  Cs  



 ATOMIC COORDINATES

 NR  ATOM    CHARGE       X              Y              Z

   1  C       6.00    0.000000000    0.024691812   -1.406676799
   2  O       8.00    0.000000000   -0.121481128    1.330994423
   3  H       1.00    0.000000000    1.570292274    1.986701223
   4  H1      1.00    1.684053272    0.980866318   -2.117913938
   5  H3      1.00   -1.684053272    0.980866318   -2.117913938
   6  H2      1.00    0.000000000   -1.897947675   -2.115733492

 Bond lengths in Bohr (Angstrom)

 1-2  2.741570763  1-4  2.063047110  1-5  2.063047110  1-6  2.049220337  2-3  1.814400356
     ( 1.450776770)     ( 1.091717516)     ( 1.091717516)     ( 1.084400703)     ( 0.960139320)

 Bond angles

  1-2-3  108.12930637   2-1-4  111.65221523   2-1-5  111.65221523   2-1-6  107.18733878

  4-1-5  109.43105099   4-1-6  108.39459424   5-1-6  108.39459424

 NUCLEAR CHARGE:                   18
 NUMBER OF PRIMITIVE AOS:         228
 NUMBER OF SYMMETRY AOS:          206
 NUMBER OF CONTRACTIONS:          178   (  114A'  +   64A"  )
 NUMBER OF INNER CORE ORBITALS:     0   (    0A'  +    0A"  )
 NUMBER OF OUTER CORE ORBITALS:     2   (    2A'  +    0A"  )
 NUMBER OF VALENCE ORBITALS:       12   (    9A'  +    3A"  )


 NUCLEAR REPULSION ENERGY   39.87051999

 Eigenvalues of metric

         1 0.895E-04 0.188E-03 0.311E-03 0.467E-03 0.500E-03 0.561E-03 0.621E-03 0.625E-03
         2 0.324E-03 0.570E-03 0.688E-03 0.179E-02 0.341E-02 0.521E-02 0.645E-02 0.879E-02


 Contracted 2-electron integrals neglected if value below      1.0D-11
 AO integral compression algorithm  1   Integral accuracy      1.0D-11

     330.826 MB (compressed) written to integral file ( 53.3%)


 NUMBER OF SORTED TWO-ELECTRON INTEGRALS:   64554730.     BUFFER LENGTH:  32768
 NUMBER OF SEGMENTS:   5  SEGMENT LENGTH:   15997996      RECORD LENGTH: 524288

 Memory used in sort:      16.56 MW

 SORT1 READ    77497885. AND WROTE    63544135. INTEGRALS IN    184 RECORDS. CPU TIME:     2.45 SEC, REAL TIME:   228.13 SEC
 SORT2 READ    63544135. AND WROTE    64554730. INTEGRALS IN   1262 RECORDS. CPU TIME:     1.32 SEC, REAL TIME:   362.93 SEC

 FILE SIZES:   FILE 1:   361.7 MBYTE,  FILE 4:   771.8 MBYTE,   TOTAL:   1133.5 MBYTE

 OPERATOR DM      FOR CENTER  0  COORDINATES:    0.000000    0.000000    0.000000


 **********************************************************************************************************************************
 DATASETS  * FILE   NREC   LENGTH (MB)   RECORD NAMES
              1      19      311.23       500      610      700      900      950      970     1000      129      960     1100   
                                          VAR    BASINP    GEOM    SYMINP    ZMAT    AOBASIS   BASIS     P2S    ABASIS      S 
                                         1400     1410     1200     1210     1080     1600     1650     1300     1700   
                                           T        V       H0       H01     AOSYM     SMH    MOLCAS    ERIS     OPER   

 PROGRAMS   *        TOTAL       INT
 CPU TIMES  *         7.46      7.35
 REAL TIME  *       752.80 SEC
 DISK USED  *         1.13 GB
 **********************************************************************************************************************************


 PROGRAM * RHF-SCF (CLOSED SHELL)       Authors: W. Meyer, H.-J. Werner


 NUMBER OF ELECTRONS:       9+    9-
 CONVERGENCE THRESHOLDS:    1.00E-05 (Density)    1.00E-07 (Energy)
 MAX. NUMBER OF ITERATIONS:       60
 INTERPOLATION TYPE:            DIIS
 INTERPOLATION STEPS:              2 (START)      1 (STEP)
 LEVEL SHIFTS:                  0.00 (CLOSED)  0.00 (OPEN) 



 Orbital guess generated from atomic densities. Full valence occupancy:   11   3

 Molecular orbital dump at record        2100.2

 Initial occupancy:   7   2

 ITERATION    DDIFF          GRAD             ENERGY        2-EL.EN.            DIPOLE MOMENTS         DIIS   ORB.
    1      0.000D+00      0.000D+00      -115.06078417    163.564565    0.00000    0.90426   -0.53777    0    start
    2      0.000D+00      0.671D-02      -115.08897991    161.018814    0.00000    0.49545   -0.34466    1    diag
    3      0.654D-02      0.373D-02      -115.09681012    162.279375    0.00000    0.59965   -0.44366    2    diag
    4      0.227D-02      0.725D-03      -115.09734479    162.105192    0.00000    0.59493   -0.43784    3    diag
    5      0.591D-03      0.145D-03      -115.09737945    162.116638    0.00000    0.59103   -0.44245    4    diag
    6      0.165D-03      0.270D-04      -115.09738100    162.114084    0.00000    0.59117   -0.44318    5    diag
    7      0.468D-04      0.559D-05      -115.09738107    162.113846    0.00000    0.59101   -0.44344    6    diag
    8      0.115D-04      0.137D-05      -115.09738108    162.114122    0.00000    0.59099   -0.44347    7    diag
    9      0.218D-05      0.426D-06      -115.09738108    162.113974    0.00000    0.59098   -0.44347    0    orth

 Final occupancy:   7   2

 !RHF STATE  1.1 Energy              -115.097381077263
 Nuclear energy                        39.87051999
 One-electron energy                 -236.02488782
 Two-electron energy                   81.05698675
 Virial quotient                       -1.00152329
 !RHF STATE  1.1 Dipole moment          0.00000000     0.59097554    -0.44347018
 Dipole moment /Debye                   0.00000000     1.50201161    -1.12711494

 Orbital energies:

         1.1          2.1          3.1          4.1          5.1          6.1          7.1          8.1          9.1
    -20.556469   -11.273090    -1.346590    -0.927824    -0.684430    -0.588128    -0.506933     0.054696     0.064607

         1.2          2.2          3.2          4.2
     -0.617153    -0.454840     0.073798     0.182047


 HOMO      2.2    -0.454840 =     -12.3768eV
 LUMO      8.1     0.054696 =       1.4883eV
 LUMO-HOMO         0.509535 =      13.8652eV


 **********************************************************************************************************************************
 DATASETS  * FILE   NREC   LENGTH (MB)   RECORD NAMES
              1      19      311.23       500      610      700      900      950      970     1000      129      960     1100   
                                          VAR    BASINP    GEOM    SYMINP    ZMAT    AOBASIS   BASIS     P2S    ABASIS      S 
                                         1400     1410     1200     1210     1080     1600     1650     1300     1700   
                                           T        V       H0       H01     AOSYM     SMH    MOLCAS    ERIS     OPER   

              2       4        3.18       700     1000      520     2100   
                                         GEOM     BASIS   MCVARS     RHF  

 PROGRAMS   *        TOTAL    HF-SCF       INT
 CPU TIMES  *        10.70      3.23      7.35
 REAL TIME  *       800.17 SEC
 DISK USED  *         1.13 GB
 **********************************************************************************************************************************


 PROGRAM * MP2 (Closed-shell)     Authors: C. Hampel, H.-J. Werner, 1991, M. Deegan, P.J. Knowles, 1992

                                   MP2-F12 implementation by H.-J. Werner, 2007

                   Density fitting integral evaluation by F.R. Manby, 2003,2007, G. Knizia, 2010


 Basis set AUG-CC-PVTZ/JKFIT generated.  Number of basis functions:   392 
 Basis set CC-PVTZ-F12/OPTRI generated.  Number of basis functions:   314 
 Basis set AUG-CC-PVTZ/MP2FIT generated. Number of basis functions:   396 

 Convergence thresholds:  THRVAR = 1.00D-08  THRDEN = 1.00D-06

 Number of core orbitals:           2 (   2   0 )
 Number of closed-shell orbitals:   7 (   5   2 )
 Number of external orbitals:     169 ( 107  62 )

 Molecular orbitals read from record     2100.2  Type=RHF/CANONICAL (state 1.1)

 MP2-F12 correlation treatment (H.-J. Werner, 2006)
 ==================================================

 Using MP2-F12 with ansatz 3C(FIX)

 Using projected zeroth-order Hamiltonian (+Z)

 FOCKRIB=T FOCKRIC=T FOCKRIP=T CABSP=T CABSA=T CABSK=T CABSF=T GBC=F EBC=F DMAT=T NOFIK=T NOPAO=1 SOLVE=-1  USEPAO=0
 EXCH_A= T EXCH_B= F EXCH_C= F EXCH_P= F

 Geminal basis:    OPTFULL  GEM_TYPE=SLATER  BETA=1.0  NGEM=6

 Optimizing Gaussian exponents for each gem_beta

 Geminal optimization for beta= 1.0000
 Weight function:   m=0, omega= 1.4646

 Augmented Hessian optimization of geminal fit. Trust ratio= 0.40000
 Convergence reached after   2 iterations. Final gradient= 8.66D-16, Step= 4.23D-06, Delta= 1.28D-09

 Alpha:                 0.19532     0.81920     2.85917     9.50073    35.69989   197.79328
 Coeff:                 0.27070     0.30552     0.18297     0.10986     0.06810     0.04224


 Symmetry turned off. Reference energy:       -115.097381077263

 All pairs explicitly correlated. Number of r12-pairs:           28

 Excluding core orbitals from MO domains

 AO(A)-basis ORBITAL           loaded. Number of functions:     178
 RI(R)-basis CC-PVTZ-F12/OPTRI loaded. Number of functions:     314
 DF-basis AUG-CC-PVTZ/JKFIT    loaded. Number of functions:     392

 Screening thresholds:   THRAO=  1.00D-10  THRMO=  1.00D-09  THRPROD=  1.00D-09
                         THRSW=  1.00D-05  THROV=  1.00D-12  THRAOF12= 1.00D-08

 CPU time for Fock operators                      5.54 sec

 Construction of ABS:
 Smallest eigenvalue of S          4.50E-04  (threshold= 1.00E-08)
 Ratio eigmin/eigmax               5.79E-05  (threshold= 1.00E-09)
 Smallest eigenvalue of S kept     4.50E-04  (threshold= 4.50E-04, 0 functions deleted, 314 kept)

 Construction of CABS:
 Smallest eigenvalue of S          7.73E-07  (threshold= 1.00E-08)
 Ratio eigmin/eigmax               7.73E-07  (threshold= 1.00E-09)
 Smallest eigenvalue of S kept     7.73E-07  (threshold= 7.73E-07, 0 functions deleted, 314 kept)

 CPU time for CABS singles                        0.04 sec

 CABS-singles contribution of  -0.00133699 patched into reference energy.
 New reference energy        -115.09871806

 AO(A)-basis ORBITAL           loaded. Number of functions:     178
 RI(R)-basis CC-PVTZ-F12/OPTRI loaded. Number of functions:     314
 DF-basis AUG-CC-PVTZ/MP2FIT   loaded. Number of functions:     396

 Screening thresholds:   THRAO=  1.00D-10  THRMO=  1.00D-09  THRPROD=  1.00D-09
                         THRSW=  1.00D-05  THROV=  1.00D-12  THRAOF12= 1.00D-08

 CPU time for 3-index integral evaluation         3.41 sec
 CPU time for first  half transformation          0.26 sec ( 9496.4 MFLOP/sec)
 CPU time for sorting                             0.02 sec
 CPU time for fitting                             0.01 sec (******* MFLOP/sec)
 CPU time for tilde quantities                    0.03 sec (50348.4 MFLOP/sec)
 CPU time for assembly                            0.24 sec (51473.3 MFLOP/sec)
 CPU time for tranop_f12                          0.26 sec (61000.9 MFLOP/sec)
 CPU time for f12 integrals (total)               7.24 sec, Elapsed time:      7.59 sec
 CPU time for f12 matrices (total)                0.11 sec, Elapsed time:      0.15 sec

 Diagonal F12 approximation with fixed coefficients:  TSING= 0.500,  TTRIP= 0.250 (scaled by -1/beta)

 DF-MP2-F12 energy corrections:
 ==============================
 Approx.                                    Singlet             Triplet             Total
 DF-MP2-F12/3*C(DX,FIX)                -0.038206179456     -0.004183782012     -0.042389961468
 DF-MP2-F12/3*C(FIX)                   -0.036036511516     -0.003908973141     -0.039945484657
 DF-MP2-F12/3C(FIX)                    -0.035982032516     -0.004043748392     -0.040025780907

 DF-MP2-F12 correlation energies:
 ================================
 Approx.                                    Singlet             Triplet             Ecorr            Total Energy
 DF-MP2                                -0.291817122581     -0.152495969048     -0.444313091629   -115.543031155602
 DF-MP2-F12/3*C(DX,FIX)                -0.330023302037     -0.156679751060     -0.486703053097   -115.585421117070
 DF-MP2-F12/3*C(FIX)                   -0.327853634097     -0.156404942189     -0.484258576286   -115.582976640259
 DF-MP2-F12/3C(FIX)                    -0.327799155096     -0.156539717440     -0.484338872536   -115.583056936509

 SCS-DF-MP2 energies (F_SING= 1.20000  F_TRIP= 0.62222  F_PARALLEL= 0.33333):
 ============================================================================
 SCS-DF-MP2                            -0.445066927838   -115.543784991811
 SCS-DF-MP2-F12/3*C(DX,FIX)            -0.493517585326   -115.592235649299
 SCS-DF-MP2-F12/3*C(FIX)               -0.490742991612   -115.589461055585
 SCS-DF-MP2-F12/3C(FIX)                -0.490761476967   -115.589479540940

 Symmetry restored.
 Symmetry transformation completed.

 Number of N-1 electron functions:               7
 Number of N-2 electron functions:              28
 Number of singly external CSFs:               659
 Number of doubly external CSFs:            355020
 Total number of CSFs:                      355680

 Length of J-op  integral file:             103.49 MB
 Length of K-op  integral file:             127.95 MB

 Integral transformation finished. Total CPU:   0.49 sec, npass=  1  Memory used:   0.67 MW

 ITER.      SQ.NORM     CORR.ENERGY   TOTAL ENERGY   ENERGY CHANGE     VAR   MIC
   1      1.00000000    -0.44438035  -115.54309841    -0.44438035  0.00D+00   0
   2      1.11592883    -0.44438035  -115.54309841    -0.00000000  0.10D-15   0

 Solving MP2-F12 equations

   1      1.11589180    -0.48364488  -115.58236294    -0.03926453 -0.38D-04   0
   2      1.11589180    -0.48440472  -115.58312279    -0.00075984 -0.60D-19   0
   3      1.11589180    -0.48440472  -115.58312279     0.00000000  0.41D-19   0

 CPU TIME FOR ITERATIVE MP2:    0.04 SEC


 MP2-F12 energy corrections:
 ===========================
 Approx.                                    Singlet             Triplet             Total
 MP2-F12/3*C(DX,FIX)                   -0.038206179456     -0.004183782012     -0.042389961468
 MP2-F12/3*C(FIX)                      -0.036036511516     -0.003908973141     -0.039945484657
 MP2-F12/3C(FIX)                       -0.035979390943     -0.004044986850     -0.040024377793

 MP2-F12 correlation energies:
 =============================
 Approx.                                    Singlet             Triplet             Ecorr            Total Energy
 MP2                                   -0.291998884546     -0.152381461283     -0.444380345830   -115.543098409803
 MP2-F12/3*C(DX,FIX)                   -0.330205064002     -0.156565243295     -0.486770307298   -115.585488371271
 MP2-F12/3*C(FIX)                      -0.328035396063     -0.156290434424     -0.484325830487   -115.583043894460
 MP2-F12/3C(FIX)                       -0.327978275489     -0.156426448134     -0.484404723623   -115.583122787596

 SCS-MP2 energies (F_SING= 1.20000  F_TRIP= 0.62222  F_PARALLEL= 0.33333):
 =========================================================================
 SCS-MP2                               -0.445213792921   -115.543931856894
 SCS-MP2-F12/3*C(DX,FIX)               -0.493664450409   -115.592382514382
 SCS-MP2-F12/3*C(FIX)                  -0.490889856694   -115.589607920667
 SCS-MP2-F12/3C(FIX)                   -0.490905942759   -115.589624006732


  Reference energy                   -115.097381077263
  F12 singles correction               -0.001336986710

 F12 singles corrections added to reference energy

  New reference energy               -115.098718063973

  F12/3C(F) singlet correction         -0.035979390943
  F12/3C(F) triplet correction         -0.004044986850
  F12/3C(F) total correction           -0.040024377793
  MP2-F12/3C(F) singlet pair energy    -0.327978275489
  MP2-F12/3C(F) triplet pair energy    -0.156426448134
  MP2-F12/3C(F) correlation energy     -0.484404723623

 !MP2-F12/3C(F) total energy         -115.583122787596


 **********************************************************************************************************************************
 DATASETS  * FILE   NREC   LENGTH (MB)   RECORD NAMES
              1      20      316.97       500      610      700      900      950      970     1000      129      960     1100   
                                          VAR    BASINP    GEOM    SYMINP    ZMAT    AOBASIS   BASIS     P2S    ABASIS      S 
                                         1400     1410     1200     1210     1080     1600     1650     1300     1700     1380   
                                           T        V       H0       H01     AOSYM     SMH    MOLCAS    ERIS     OPER     JKOP   

              2       7        3.55       700     1000      520     2100     7360     7350     7000   
                                         GEOM     BASIS   MCVARS     RHF    F12ABS    EF12   

 PROGRAMS   *        TOTAL   MP2-F12    HF-SCF       INT
 CPU TIMES  *        24.38     13.68      3.23      7.35
 REAL TIME  *       816.48 SEC
 DISK USED  *         1.13 GB
 **********************************************************************************************************************************


 PROGRAM * CCSD (Closed-shell coupled cluster)     Authors: C. Hampel, H.-J. Werner, 1991, M. Deegan, P.J. Knowles, 1992

                                  CCSD-F12 implementation by  H.-J. Werner, 2007

                   Density fitting integral evaluation by F.R. Manby, 2003,2007, G. Knizia, 2010



 Convergence thresholds:  THRVAR = 1.00D-08  THRDEN = 1.00D-06

 CCSD(T)     terms to be evaluated (factor= 1.000)


 Number of core orbitals:           2 (   2   0 )
 Number of closed-shell orbitals:   7 (   5   2 )
 Number of external orbitals:     169 ( 107  62 )

 Molecular orbitals read from record     2100.2  Type=RHF/CANONICAL (state 1.1)

 MP2-F12 correlation treatment (H.-J. Werner, 2006)
 ==================================================

 Using MP2-F12 with ansatz 3C(FIX)

 Using projected zeroth-order Hamiltonian (+Z)

 FOCKRIB=T FOCKRIC=T FOCKRIP=T CABSP=T CABSA=T CABSK=T CABSF=T GBC=F EBC=F DMAT=T NOFIK=T NOPAO=1 SOLVE=-1  USEPAO=0
 EXCH_A= T EXCH_B= F EXCH_C= F EXCH_P= F

 Geminal basis:    OPTFULL  GEM_TYPE=SLATER  BETA=1.0  NGEM=6

 Optimizing Gaussian exponents for each gem_beta

 Geminal optimization for beta= 1.0000
 Weight function:   m=0, omega= 1.4646

 Augmented Hessian optimization of geminal fit. Trust ratio= 0.40000
 Convergence reached after   2 iterations. Final gradient= 8.66D-16, Step= 4.23D-06, Delta= 1.28D-09

 Alpha:                 0.19532     0.81920     2.85917     9.50073    35.69989   197.79328
 Coeff:                 0.27070     0.30552     0.18297     0.10986     0.06810     0.04224


 Symmetry turned off. Reference energy:       -115.097381077263

 All pairs explicitly correlated. Number of r12-pairs:           28

 Excluding core orbitals from MO domains

 AO(A)-basis ORBITAL           loaded. Number of functions:     178
 RI(R)-basis CC-PVTZ-F12/OPTRI loaded. Number of functions:     314
 DF-basis AUG-CC-PVTZ/JKFIT    loaded. Number of functions:     392

 Screening thresholds:   THRAO=  1.00D-10  THRMO=  1.00D-09  THRPROD=  1.00D-09
                         THRSW=  1.00D-05  THROV=  1.00D-12  THRAOF12= 1.00D-08

 CPU time for Fock operators                      5.50 sec

 Construction of ABS:
 Smallest eigenvalue of S          4.50E-04  (threshold= 1.00E-08)
 Ratio eigmin/eigmax               5.79E-05  (threshold= 1.00E-09)
 Smallest eigenvalue of S kept     4.50E-04  (threshold= 4.50E-04, 0 functions deleted, 314 kept)

 Construction of CABS:
 Smallest eigenvalue of S          7.73E-07  (threshold= 1.00E-08)
 Ratio eigmin/eigmax               7.73E-07  (threshold= 1.00E-09)
 Smallest eigenvalue of S kept     7.73E-07  (threshold= 7.73E-07, 0 functions deleted, 314 kept)

 CPU time for CABS singles                        0.04 sec

 CABS-singles contribution of  -0.00133699 patched into reference energy.
 New reference energy        -115.09871806

 AO(A)-basis ORBITAL           loaded. Number of functions:     178
 RI(R)-basis CC-PVTZ-F12/OPTRI loaded. Number of functions:     314
 DF-basis AUG-CC-PVTZ/MP2FIT   loaded. Number of functions:     396

 Screening thresholds:   THRAO=  1.00D-10  THRMO=  1.00D-09  THRPROD=  1.00D-09
                         THRSW=  1.00D-05  THROV=  1.00D-12  THRAOF12= 1.00D-08

 CPU time for 3-index integral evaluation         3.48 sec
 CPU time for first  half transformation          0.26 sec ( 9496.4 MFLOP/sec)
 CPU time for second half transformation          0.02 sec ( 3108.5 MFLOP/sec)
 CPU time for fitting                             0.02 sec (56971.3 MFLOP/sec)
 CPU time for tilde quantities                    0.03 sec (50348.4 MFLOP/sec)
 CPU time for assembly                            0.21 sec (58826.6 MFLOP/sec)
 CPU time for tranop_f12                          0.30 sec (52867.4 MFLOP/sec)
 CPU time for f12 integrals (total)               7.29 sec, Elapsed time:      7.65 sec
 CPU time for f12 matrices (total)                0.10 sec, Elapsed time:      0.14 sec

 Diagonal F12 approximation with fixed coefficients:  TSING= 0.500,  TTRIP= 0.250 (scaled by -1/beta)

 DF-MP2-F12 energy corrections:
 ==============================
 Approx.                                    Singlet             Triplet             Total
 DF-MP2-F12/3*C(DX,FIX)                -0.038206179456     -0.004183782012     -0.042389961468
 DF-MP2-F12/3*C(FIX)                   -0.036036511516     -0.003908973141     -0.039945484657
 DF-MP2-F12/3C(FIX)                    -0.035982032516     -0.004043748392     -0.040025780907

 DF-MP2-F12 correlation energies:
 ================================
 Approx.                                    Singlet             Triplet             Ecorr            Total Energy
 DF-MP2                                -0.291817122581     -0.152495969048     -0.444313091629   -115.543031155602
 DF-MP2-F12/3*C(DX,FIX)                -0.330023302037     -0.156679751060     -0.486703053097   -115.585421117070
 DF-MP2-F12/3*C(FIX)                   -0.327853634097     -0.156404942189     -0.484258576286   -115.582976640259
 DF-MP2-F12/3C(FIX)                    -0.327799155096     -0.156539717440     -0.484338872536   -115.583056936509

 SCS-DF-MP2 energies (F_SING= 1.20000  F_TRIP= 0.62222  F_PARALLEL= 0.33333):
 ============================================================================
 SCS-DF-MP2                            -0.445066927838   -115.543784991811
 SCS-DF-MP2-F12/3*C(DX,FIX)            -0.493517585326   -115.592235649299
 SCS-DF-MP2-F12/3*C(FIX)               -0.490742991612   -115.589461055585
 SCS-DF-MP2-F12/3C(FIX)                -0.490761476967   -115.589479540940

 Symmetry restored.
 Symmetry transformation completed.

 Number of N-1 electron functions:               7
 Number of N-2 electron functions:              28
 Number of singly external CSFs:               659
 Number of doubly external CSFs:            355020
 Total number of CSFs:                      355680

 Length of J-op  integral file:             103.62 MB
 Length of K-op  integral file:             127.95 MB
 Length of 3-ext integral record:             0.00 MB

 Memory could be reduced to 24.20 Mwords without degradation in triples

 Integral transformation finished. Total CPU:   1.26 sec, npass=  1  Memory used:   7.45 MW

 Reference energy:                   -115.09871806

 Adding F12 terms to K(Cij), methodcc=6,  factor= 1.0

 ITER.      SQ.NORM     CORR.ENERGY   TOTAL ENERGY   ENERGY CHANGE        DEN1      VAR(S)    VAR(P)  DIIS     TIME  TIME/IT
   1      1.11864816    -0.45359825  -115.55231632    -0.00921791     0.00199565  0.15D-02  0.19D-02  1  1    15.15     1.07
   2      1.12622472    -0.45394568  -115.55266374    -0.00034742    -0.00919436  0.25D-04  0.24D-03  2  2    15.99     1.17
   3      1.12903419    -0.45412854  -115.55284660    -0.00018286    -0.00189399  0.16D-04  0.14D-04  3  3    16.85     1.09
   4      1.13002703    -0.45414606  -115.55286413    -0.00001752    -0.00062273  0.90D-06  0.13D-05  4  4    17.68     1.05
   5      1.13019328    -0.45414798  -115.55286604    -0.00000191    -0.00004086  0.25D-06  0.11D-06  5  5    18.55     1.03
   6      1.13023952    -0.45414542  -115.55286348     0.00000256    -0.00000480  0.38D-07  0.10D-07  6  6    19.41     1.02
   7      1.13025148    -0.45414451  -115.55286258     0.00000090    -0.00000313  0.42D-08  0.16D-08  6  1    20.24     1.01
   8      1.13025340    -0.45414458  -115.55286265    -0.00000007     0.00000036  0.75D-09  0.23D-09  6  3    21.10     1.00

 Norm of t1 vector:      0.05087979      S-energy:    -0.00000038      T1 diagnostic:  0.00961538
                                                                       D1 diagnostic:  0.02037246

 Adding energy correction from Wij-K(Fij), methodcc=6  factor= 1.0

  CCSD correlation energy              -0.454144582741
  MP2-F12 correction (uncoupled)       -0.038462219252
  C*T doubles correction               -0.001171764444
  f12b correction                       0.007109571790


 Total CPU time for triples:     12.89 sec


 RESULTS
 =======

  Reference energy                   -115.097381077263
  F12 singles correction               -0.001336986710

 F12 singles corrections added to reference energy

  New reference energy               -115.098718063973

  F12a singlet correction              -0.035737663785
  F12a triplet correction              -0.003896319910
  F12a total correction                -0.039633983696

 F12a corrections for ansatz F12/3C(FIX) added to CCSD energy

  CCSD-F12a singlet pair energy        -0.352041994709
  CCSD-F12a triplet pair energy        -0.141736190822
  CCSD-F12a correlation energy         -0.493778566436

  Triples (T) contribution             -0.016224609365
  Total correlation energy             -0.510003175802

  CCSD-F12a total energy             -115.592496630409
  CCSD[T]-F12a energy                -115.609295741899
  CCSD-T-F12a energy                 -115.608465823762
 !CCSD(T)-F12a total energy          -115.608721239775

 F12b corrections for ansatz F12/3C(FIX) added to CCSD(T)-F12a energy

  CCSD-F12b singlet pair energy        -0.345393067173
  CCSD-F12b triplet pair energy        -0.141275546567
  CCSD-F12b correlation energy         -0.486668994646

  Triples (T) contribution             -0.016224609365
  Total correlation energy             -0.502893604012

  CCSD-F12b total energy             -115.585387058619
  CCSD[T]-F12b energy                -115.602186170109
  CCSD-T-F12b energy                 -115.601356251972
 !CCSD(T)-F12b total energy          -115.601611667985

 Timing summary (sec):

 STEP                 CPU(USER)    SYS     CPU(TOT)    WALL
 Transformation          1.27      0.27      1.54      1.93
 CCSD iterations         6.82      0.81      7.63      8.08
 Triples                12.89      0.51     13.40     13.42
 MP2-F12                13.01      0.54     13.55     13.69
 F12b energy             0.69      0.04      0.73      0.74

 Program statistics:

 Available memory in ccsd:               499999650
 Min. memory needed in ccsd:               1149135
 Max. memory used in ccsd:                 1443104
 Max. memory used in cckext:               1888566 ( 9 integral passes)



 **********************************************************************************************************************************
 DATASETS  * FILE   NREC   LENGTH (MB)   RECORD NAMES
              1      20      385.54       500      610      700      900      950      970     1000      129      960     1100   
                                          VAR    BASINP    GEOM    SYMINP    ZMAT    AOBASIS   BASIS     P2S    ABASIS      S 
                                         1400     1410     1200     1210     1080     1600     1650     1300     1700     1380   
                                           T        V       H0       H01     AOSYM     SMH    MOLCAS    ERIS     OPER     JKOP   

              2       7        3.55       700     1000      520     2100     7360     7350     7000   
                                         GEOM     BASIS   MCVARS     RHF    F12ABS    EF12   

 PROGRAMS   *        TOTAL   CCSD(T)   MP2-F12    HF-SCF       INT
 CPU TIMES  *        59.09     34.71     13.68      3.23      7.35
 REAL TIME  *       854.40 SEC
 DISK USED  *         1.13 GB
 **********************************************************************************************************************************
 SETTING XXX            =    "MMM"
 SETTING POINT          =        12.00000000                                  

 *** ### CH3OH


 XXX       RCO          ROH          RCH1         RCH2         RCH3           ACOH           AOCH1          AOCH2          AOCH3         AHH1           AHH2           AHH3            ENERGY       POINT
 "MMM"   1.45077677   0.96013932   1.09171752   1.08440070   1.09171752   108.12930637   111.65221523   107.18733878   111.65221523   61.43364279   180.00000000   298.56635721   -115.60872124   12.0000
                                                  

 CCSD(T)-F12/cc-pVTZ-F12 energy=   -115.601611667985

     CCSD(T)-F12         MP2-F12          HF-SCF
   -115.60161167   -115.58312279   -115.09738108
 **********************************************************************************************************************************
 Molpro calculation terminated
