
 Primary working directories    : /tmpdir/job/2955692.undefined/molpro.7SXqe6Iy3r
 Secondary working directories  : /tmpdir/job/2955692.undefined/molpro.7SXqe6Iy3r
 Wavefunction directory         : /home/zcaposm/wfu/
 Main file repository           : /tmpdir/job/2955692.undefined/molpro.7SXqe6Iy3r/

 id        : uclcc

 Nodes                         nprocs
 node-d00a-132.myriad.ucl.ac.uk    1

 Using customized tuning parameters: mindgm=1; mindgv=20; mindgc=4; mindgr=1; noblas=0; minvec=7
 default implementation of scratch files=df  


 Variables initialized (945), CPU time= 0.00 sec
 ***,Methanol Ground State Energy with CCSD(T)-F12 and cc-pVTZ-F12
 memory,500,m;
 
 geometry={angstrom
 c
 o , 1, rco
 h , 2, roh, 1, acoh
 h1, 1, rch1, 2, aoch1  3  ahh1
 h2, 1, rch2, 2, aoch2, 3, ahh2
 h3, 1, rch3, 2, aoch3, 3, ahh3
 }
 
                                                ! Specify the initial values of the internal coordinates (in Angstroms and degrees)
 
 rco= 1.42077677
 roh= 0.96013932
 rch1= 1.0917448064830726
 rch2= 1.0844026894919974
 rch3= 1.0916867262616943
 acoh= 108.12930637
 aoch1= 111.63866535182125
 aoch2= 107.18851072566314
 aoch3= 111.66506270638106
 ahh1=62.63364279
 ahh2=181.2
 ahh3=299.76635720999997
 
                                                                                 ! Use the cc-pVTZ-F12 basis set
 basis=cc-pVTZ-F12
 
 hf
 
                                                                                 ! Use explicitly correlated F12 methods
                                                                            ! First, MP2-F12 (useful for initial electronic energy)
 {mp2-f12}
 
                                                                        ! If desired, perform CCSD(T)-F12 for more accurate results
 {ccsd(t)-f12}
 
                                                                                 ! Output the energy
 xxx = "mmm"
 point = 120
 text ### CH3OH
 table,xxx,rco,roh,rch1,rch2,rch3,acoh,aoch1,aoch2,aoch3,ahh1,ahh2,ahh3,energy,point
 DIGITS, 0, 8, 8, 8, 8, 8, 8, 8, 8, 8,  8,  8,  8, 8, 4
 save,CH3OH_MEP_MP2_120.dat,new
 
 Commands  initialized (802), CPU time= 0.01 sec, 659 directives.
 Default parameters read. Elapsed time= 0.10 sec

 Checking input...
 Passed
1


                                         ***  PROGRAM SYSTEM MOLPRO  ***
                                       Copyright, TTI GmbH Stuttgart, 2015
                                    Version 2020.1 linked Oct  6 2020 12:04:11


 **********************************************************************************************************************************
 LABEL *   Methanol Ground State Energy with CCSD(T)-F12 and cc-pVTZ-F12                 
  64 bit serial version                                                                  DATE: 08-Oct-24          TIME: 17:40:00  
 **********************************************************************************************************************************

 SHA1:             8c27446f6450a7499e38f603e13c65f775101d37
 **********************************************************************************************************************************

 Memory per process:       500 MW
 Total memory per node:    500 MW

 GA preallocation disabled
 GA check disabled

 Variable memory set to 500.0 MW

 SETTING RCO            =         1.42077677                                  
 SETTING ROH            =         0.96013932                                  
 SETTING RCH1           =         1.09174481                                  
 SETTING RCH2           =         1.08440269                                  
 SETTING RCH3           =         1.09168673                                  
 SETTING ACOH           =       108.12930637                                  
 SETTING AOCH1          =       111.63866535                                  
 SETTING AOCH2          =       107.18851073                                  
 SETTING AOCH3          =       111.66506271                                  
 SETTING AHH1           =        62.63364279                                  
 SETTING AHH2           =       181.20000000                                  
 SETTING AHH3           =       299.76635721                                  
 SETTING BASIS          =    CC-PVTZ-F12


 Recomputing integrals since basis changed


 Using spherical harmonics

 Library entry C      S cc-pVTZ-F12          selected for orbital group  1
 Library entry C      P cc-pVTZ-F12          selected for orbital group  1
 Library entry C      D cc-pVTZ-F12          selected for orbital group  1
 Library entry C      F cc-pVTZ-F12          selected for orbital group  1
 Library entry O      S cc-pVTZ-F12          selected for orbital group  2
 Library entry O      P cc-pVTZ-F12          selected for orbital group  2
 Library entry O      D cc-pVTZ-F12          selected for orbital group  2
 Library entry O      F cc-pVTZ-F12          selected for orbital group  2
 Library entry H      S cc-pVTZ-F12          selected for orbital group  3
 Library entry H      P cc-pVTZ-F12          selected for orbital group  3
 Library entry H      D cc-pVTZ-F12          selected for orbital group  3


 PROGRAM * SEWARD (Integral evaluation for generally contracted gaussian basis sets)     Author: Roland Lindh, 1990

 Geometry written to block  1 of record 700

 Orientation using atomic masses  
 Molecule type: Asymmetric top
 Rotational constants:      23.9585350     24.8081551    128.7818242 GHz  (calculated with average atomic masses)

 Point group  C1  



 ATOMIC COORDINATES

 NR  ATOM    CHARGE       X              Y              Z

   1  C       6.00    0.000084222    0.025185626   -1.376591499
   2  O       8.00   -0.000039277   -0.122052780    1.304247170
   3  H       1.00    0.001585420    1.568717992    1.962532982
   4  H1      1.00    1.704050596    0.945475898   -2.087886503
   5  H2      1.00   -0.042760558   -1.895890458   -2.088595982
   6  H3      1.00   -1.663255617    1.018963371   -2.084849706

 Bond lengths in Bohr (Angstrom)

 1-2  2.684878979  1-4  2.063098682  1-5  2.049224092  1-6  2.062988926  2-3  1.814400356
     ( 1.420776770)     ( 1.091744806)     ( 1.084402689)     ( 1.091686726)     ( 0.960139320)

 Bond angles

  1-2-3  108.12930637   2-1-4  111.63866535   2-1-5  107.18851073   2-1-6  111.66506271

  4-1-5  108.40032518   4-1-6  109.43144651   5-1-6  108.38799549

 NUCLEAR CHARGE:                   18
 NUMBER OF PRIMITIVE AOS:         228
 NUMBER OF SYMMETRY AOS:          206
 NUMBER OF CONTRACTIONS:          178   (  178A   )
 NUMBER OF INNER CORE ORBITALS:     0   (    0A   )
 NUMBER OF OUTER CORE ORBITALS:     2   (    2A   )
 NUMBER OF VALENCE ORBITALS:       12   (   12A   )


 NUCLEAR REPULSION ENERGY   40.34553276

 Eigenvalues of metric

         1 0.879E-04 0.183E-03 0.309E-03 0.323E-03 0.460E-03 0.493E-03 0.560E-03 0.570E-03


 Contracted 2-electron integrals neglected if value below      1.0D-11
 AO integral compression algorithm  1   Integral accuracy      1.0D-11

     601.883 MB (compressed) written to integral file ( 50.5%)


 NUMBER OF SORTED TWO-ELECTRON INTEGRALS:  126906346.     BUFFER LENGTH:  32768
 NUMBER OF SEGMENTS:   8  SEGMENT LENGTH:   15999503      RECORD LENGTH: 524288

 Memory used in sort:      16.56 MW

 SORT1 READ   149034713. AND WROTE   124696736. INTEGRALS IN    360 RECORDS. CPU TIME:     2.24 SEC, REAL TIME:    24.92 SEC
 SORT2 READ   124696736. AND WROTE   126906346. INTEGRALS IN   2296 RECORDS. CPU TIME:     2.13 SEC, REAL TIME:    41.59 SEC

 FILE SIZES:   FILE 1:   633.1 MBYTE,  FILE 4:  1510.0 MBYTE,   TOTAL:   2143.1 MBYTE

 OPERATOR DM      FOR CENTER  0  COORDINATES:    0.000000    0.000000    0.000000


 **********************************************************************************************************************************
 DATASETS  * FILE   NREC   LENGTH (MB)   RECORD NAMES
              1      19      556.05       500      610      700      900      950      970     1000      129      960     1100   
                                          VAR    BASINP    GEOM    SYMINP    ZMAT    AOBASIS   BASIS     P2S    ABASIS      S 
                                         1400     1410     1200     1210     1080     1600     1650     1300     1700   
                                           T        V       H0       H01     AOSYM     SMH    MOLCAS    ERIS     OPER   

 PROGRAMS   *        TOTAL       INT
 CPU TIMES  *         9.48      9.37
 REAL TIME  *        82.41 SEC
 DISK USED  *         2.14 GB
 **********************************************************************************************************************************


 PROGRAM * RHF-SCF (CLOSED SHELL)       Authors: W. Meyer, H.-J. Werner


 NUMBER OF ELECTRONS:       9+    9-    SPACE SYMMETRY=1    SPIN SYMMETRY: Singlet 
 CONVERGENCE THRESHOLDS:    1.00E-05 (Density)    1.00E-07 (Energy)
 MAX. NUMBER OF ITERATIONS:       60
 INTERPOLATION TYPE:            DIIS
 INTERPOLATION STEPS:              2 (START)      1 (STEP)
 LEVEL SHIFTS:                  0.00 (CLOSED)  0.00 (OPEN) 



 Orbital guess generated from atomic densities. Full valence occupancy:   14

 Molecular orbital dump at record        2100.2

 Initial occupancy:   9

 ITERATION    DDIFF          GRAD             ENERGY        2-EL.EN.            DIPOLE MOMENTS         DIIS   ORB.
    1      0.000D+00      0.000D+00      -115.06237446    164.484243   -0.00001    0.90427   -0.47795    0    start
    2      0.000D+00      0.506D-02      -115.09072588    161.902325   -0.00041    0.49654   -0.30366    1    diag
    3      0.480D-02      0.277D-02      -115.09821153    163.165436   -0.00021    0.59989   -0.39688    2    diag
    4      0.163D-02      0.546D-03      -115.09874387    162.988876   -0.00021    0.59478   -0.39232    3    diag
    5      0.436D-03      0.110D-03      -115.09877827    163.000349   -0.00021    0.59080   -0.39714    4    diag
    6      0.121D-03      0.205D-04      -115.09877983    162.998127   -0.00021    0.59094   -0.39793    5    diag
    7      0.349D-04      0.434D-05      -115.09877991    162.997744   -0.00021    0.59076   -0.39820    6    diag
    8      0.877D-05      0.114D-05      -115.09877991    162.998089   -0.00021    0.59075   -0.39822    0    orth

 Final occupancy:   9

 !RHF STATE  1.1 Energy              -115.098779909386
 Nuclear energy                        40.34553276
 One-electron energy                 -236.94335738
 Two-electron energy                   81.49904471
 Virial quotient                       -1.00101598
 !RHF STATE  1.1 Dipole moment         -0.00021167     0.59075450    -0.39821664
 Dipole moment /Debye                  -0.00053797     1.50144982    -1.01209945

 Orbital energies:

         1.1          2.1          3.1          4.1          5.1          6.1          7.1          8.1          9.1         10.1
    -20.556342   -11.269758    -1.356925    -0.926369    -0.690810    -0.621559    -0.594389    -0.504325    -0.452158     0.054650

        11.1
      0.065010


 HOMO      9.1    -0.452158 =     -12.3038eV
 LUMO     10.1     0.054650 =       1.4871eV
 LUMO-HOMO         0.506808 =      13.7909eV


 **********************************************************************************************************************************
 DATASETS  * FILE   NREC   LENGTH (MB)   RECORD NAMES
              1      19      556.05       500      610      700      900      950      970     1000      129      960     1100   
                                          VAR    BASINP    GEOM    SYMINP    ZMAT    AOBASIS   BASIS     P2S    ABASIS      S 
                                         1400     1410     1200     1210     1080     1600     1650     1300     1700   
                                           T        V       H0       H01     AOSYM     SMH    MOLCAS    ERIS     OPER   

              2       4        3.48       700     1000      520     2100   
                                         GEOM     BASIS   MCVARS     RHF  

 PROGRAMS   *        TOTAL    HF-SCF       INT
 CPU TIMES  *        17.60      8.12      9.37
 REAL TIME  *        94.10 SEC
 DISK USED  *         2.14 GB
 **********************************************************************************************************************************


 PROGRAM * MP2 (Closed-shell)     Authors: C. Hampel, H.-J. Werner, 1991, M. Deegan, P.J. Knowles, 1992

                                   MP2-F12 implementation by H.-J. Werner, 2007

                   Density fitting integral evaluation by F.R. Manby, 2003,2007, G. Knizia, 2010


 Basis set AUG-CC-PVTZ/JKFIT generated.  Number of basis functions:   392 
 Basis set CC-PVTZ-F12/OPTRI generated.  Number of basis functions:   314 
 Basis set AUG-CC-PVTZ/MP2FIT generated. Number of basis functions:   396 

 Convergence thresholds:  THRVAR = 1.00D-08  THRDEN = 1.00D-06

 Number of core orbitals:           2 (   2 )
 Number of closed-shell orbitals:   7 (   7 )
 Number of external orbitals:     169 ( 169 )

 Molecular orbitals read from record     2100.2  Type=RHF/CANONICAL (state 1.1)

 MP2-F12 correlation treatment (H.-J. Werner, 2006)
 ==================================================

 Using MP2-F12 with ansatz 3C(FIX)

 Using projected zeroth-order Hamiltonian (+Z)

 FOCKRIB=T FOCKRIC=T FOCKRIP=T CABSP=T CABSA=T CABSK=T CABSF=T GBC=F EBC=F DMAT=T NOFIK=T NOPAO=1 SOLVE=-1  USEPAO=0
 EXCH_A= T EXCH_B= F EXCH_C= F EXCH_P= F

 Geminal basis:    OPTFULL  GEM_TYPE=SLATER  BETA=1.0  NGEM=6

 Optimizing Gaussian exponents for each gem_beta

 Geminal optimization for beta= 1.0000
 Weight function:   m=0, omega= 1.4646

 Augmented Hessian optimization of geminal fit. Trust ratio= 0.40000
 Convergence reached after   2 iterations. Final gradient= 8.66D-16, Step= 4.23D-06, Delta= 1.28D-09

 Alpha:                 0.19532     0.81920     2.85917     9.50073    35.69989   197.79328
 Coeff:                 0.27070     0.30552     0.18297     0.10986     0.06810     0.04224


 All pairs explicitly correlated. Number of r12-pairs:           28

 Excluding core orbitals from MO domains

 AO(A)-basis ORBITAL           loaded. Number of functions:     178
 RI(R)-basis CC-PVTZ-F12/OPTRI loaded. Number of functions:     314
 DF-basis AUG-CC-PVTZ/JKFIT    loaded. Number of functions:     392

 Screening thresholds:   THRAO=  1.00D-10  THRMO=  1.00D-09  THRPROD=  1.00D-09
                         THRSW=  1.00D-05  THROV=  1.00D-12  THRAOF12= 1.00D-08

 CPU time for Fock operators                      1.63 sec

 Construction of ABS:
 Smallest eigenvalue of S          4.36E-04  (threshold= 1.00E-08)
 Ratio eigmin/eigmax               5.56E-05  (threshold= 1.00E-09)
 Smallest eigenvalue of S kept     4.36E-04  (threshold= 4.36E-04, 0 functions deleted, 314 kept)

 Construction of CABS:
 Smallest eigenvalue of S          7.26E-07  (threshold= 1.00E-08)
 Ratio eigmin/eigmax               7.26E-07  (threshold= 1.00E-09)
 Smallest eigenvalue of S kept     7.26E-07  (threshold= 7.26E-07, 0 functions deleted, 314 kept)

 CPU time for CABS singles                        0.05 sec

 CABS-singles contribution of  -0.00135363 patched into reference energy.
 New reference energy        -115.10013354

 AO(A)-basis ORBITAL           loaded. Number of functions:     178
 RI(R)-basis CC-PVTZ-F12/OPTRI loaded. Number of functions:     314
 DF-basis AUG-CC-PVTZ/MP2FIT   loaded. Number of functions:     396

 Screening thresholds:   THRAO=  1.00D-10  THRMO=  1.00D-09  THRPROD=  1.00D-09
                         THRSW=  1.00D-05  THROV=  1.00D-12  THRAOF12= 1.00D-08

 CPU time for 3-index integral evaluation         3.62 sec
 CPU time for first  half transformation          0.44 sec ( 5611.5 MFLOP/sec)
 CPU time for second half transformation          0.01 sec ( 6217.0 MFLOP/sec)
 CPU time for sorting                             0.03 sec
 CPU time for fitting                             0.03 sec (37980.8 MFLOP/sec)
 CPU time for tilde quantities                    0.03 sec (50348.4 MFLOP/sec)
 CPU time for assembly                            0.22 sec (56152.7 MFLOP/sec)
 CPU time for tranop_f12                          0.31 sec (51162.0 MFLOP/sec)
 CPU time for f12 integrals (total)               5.15 sec, Elapsed time:      6.93 sec
 CPU time for f12 matrices (total)                0.12 sec, Elapsed time:      0.24 sec

 Diagonal F12 approximation with fixed coefficients:  TSING= 0.500,  TTRIP= 0.250 (scaled by -1/beta)

 DF-MP2-F12 energy corrections:
 ==============================
 Approx.                                    Singlet             Triplet             Total
 DF-MP2-F12/3*C(DX,FIX)                -0.038287493348     -0.004212639574     -0.042500132921
 DF-MP2-F12/3*C(FIX)                   -0.036088669982     -0.003930896111     -0.040019566093
 DF-MP2-F12/3C(FIX)                    -0.036031372619     -0.004065869542     -0.040097242160

 DF-MP2-F12 correlation energies:
 ================================
 Approx.                                    Singlet             Triplet             Ecorr            Total Energy
 DF-MP2                                -0.291095474000     -0.152363676363     -0.443459150363   -115.543592694455
 DF-MP2-F12/3*C(DX,FIX)                -0.329382967348     -0.156576315937     -0.485959283285   -115.586092827376
 DF-MP2-F12/3*C(FIX)                   -0.327184143982     -0.156294572474     -0.483478716456   -115.583612260547
 DF-MP2-F12/3C(FIX)                    -0.327126846619     -0.156429545905     -0.483556392524   -115.583689936615

 SCS-DF-MP2 energies (F_SING= 1.20000  F_TRIP= 0.62222  F_PARALLEL= 0.33333):
 ============================================================================
 SCS-DF-MP2                            -0.444118634093   -115.544252178184
 SCS-DF-MP2-F12/3*C(DX,FIX)            -0.492684824067   -115.592818368158
 SCS-DF-MP2-F12/3*C(FIX)               -0.489870928984   -115.590004473076
 SCS-DF-MP2-F12/3C(FIX)                -0.489886155617   -115.590019699708
 Symmetry transformation completed.

 Number of N-1 electron functions:               7
 Number of N-2 electron functions:              28
 Number of singly external CSFs:              1183
 Number of doubly external CSFs:            700336
 Total number of CSFs:                      701520

 Length of J-op  integral file:             104.98 MB
 Length of K-op  integral file:             138.67 MB

 Integral transformation finished. Total CPU:   1.51 sec, npass=  1  Memory used:   2.18 MW

 ITER.      SQ.NORM     CORR.ENERGY   TOTAL ENERGY   ENERGY CHANGE     VAR   MIC
   1      1.00000000    -0.44352555  -115.54365910    -0.44352555  0.00D+00   0
   2      1.11473550    -0.44352555  -115.54365910     0.00000000 -0.66D-15   0

 Solving MP2-F12 equations

   1      1.11469919    -0.48286474  -115.58299828    -0.03933919 -0.37D-04   0
   2      1.11469919    -0.48362139  -115.58375493    -0.00075665  0.11D-17   0
   3      1.11469919    -0.48362139  -115.58375493     0.00000000  0.80D-20   0

 CPU TIME FOR ITERATIVE MP2:    0.12 SEC


 MP2-F12 energy corrections:
 ===========================
 Approx.                                    Singlet             Triplet             Total
 MP2-F12/3*C(DX,FIX)                   -0.038287493348     -0.004212639574     -0.042500132921
 MP2-F12/3*C(FIX)                      -0.036088669982     -0.003930896111     -0.040019566093
 MP2-F12/3C(FIX)                       -0.036028672140     -0.004067166014     -0.040095838154

 MP2-F12 correlation energies:
 =============================
 Approx.                                    Singlet             Triplet             Ecorr            Total Energy
 MP2                                   -0.291278788301     -0.152246763250     -0.443525551551   -115.543659095642
 MP2-F12/3*C(DX,FIX)                   -0.329566281648     -0.156459402824     -0.486025684472   -115.586159228564
 MP2-F12/3*C(FIX)                      -0.327367458283     -0.156177659361     -0.483545117644   -115.583678661735
 MP2-F12/3C(FIX)                       -0.327307460440     -0.156313929264     -0.483621389704   -115.583754933796

 SCS-MP2 energies (F_SING= 1.20000  F_TRIP= 0.62222  F_PARALLEL= 0.33333):
 =========================================================================
 SCS-MP2                               -0.444265865317   -115.544399409408
 SCS-MP2-F12/3*C(DX,FIX)               -0.492832055291   -115.592965599382
 SCS-MP2-F12/3*C(FIX)                  -0.490018160208   -115.590151704300
 SCS-MP2-F12/3C(FIX)                   -0.490030952959   -115.590164497051


  Reference energy                   -115.098779909386
  F12 singles correction               -0.001353634705

 F12 singles corrections added to reference energy

  New reference energy               -115.100133544091

  F12/3C(F) singlet correction         -0.036028672140
  F12/3C(F) triplet correction         -0.004067166014
  F12/3C(F) total correction           -0.040095838154
  MP2-F12/3C(F) singlet pair energy    -0.327307460440
  MP2-F12/3C(F) triplet pair energy    -0.156313929264
  MP2-F12/3C(F) correlation energy     -0.483621389704

 !MP2-F12/3C(F) total energy         -115.583754933796


 **********************************************************************************************************************************
 DATASETS  * FILE   NREC   LENGTH (MB)   RECORD NAMES
              1      20      567.23       500      610      700      900      950      970     1000      129      960     1100   
                                          VAR    BASINP    GEOM    SYMINP    ZMAT    AOBASIS   BASIS     P2S    ABASIS      S 
                                         1400     1410     1200     1210     1080     1600     1650     1300     1700     1380   
                                           T        V       H0       H01     AOSYM     SMH    MOLCAS    ERIS     OPER     JKOP   

              2       7        4.13       700     1000      520     2100     7360     7350     7000   
                                         GEOM     BASIS   MCVARS     RHF    F12ABS    EF12   

 PROGRAMS   *        TOTAL   MP2-F12    HF-SCF       INT
 CPU TIMES  *        26.44      8.83      8.12      9.37
 REAL TIME  *       105.71 SEC
 DISK USED  *         2.14 GB
 **********************************************************************************************************************************


 PROGRAM * CCSD (Closed-shell coupled cluster)     Authors: C. Hampel, H.-J. Werner, 1991, M. Deegan, P.J. Knowles, 1992

                                  CCSD-F12 implementation by  H.-J. Werner, 2007

                   Density fitting integral evaluation by F.R. Manby, 2003,2007, G. Knizia, 2010



 Convergence thresholds:  THRVAR = 1.00D-08  THRDEN = 1.00D-06

 CCSD(T)     terms to be evaluated (factor= 1.000)


 Number of core orbitals:           2 (   2 )
 Number of closed-shell orbitals:   7 (   7 )
 Number of external orbitals:     169 ( 169 )

 Molecular orbitals read from record     2100.2  Type=RHF/CANONICAL (state 1.1)

 MP2-F12 correlation treatment (H.-J. Werner, 2006)
 ==================================================

 Using MP2-F12 with ansatz 3C(FIX)

 Using projected zeroth-order Hamiltonian (+Z)

 FOCKRIB=T FOCKRIC=T FOCKRIP=T CABSP=T CABSA=T CABSK=T CABSF=T GBC=F EBC=F DMAT=T NOFIK=T NOPAO=1 SOLVE=-1  USEPAO=0
 EXCH_A= T EXCH_B= F EXCH_C= F EXCH_P= F

 Geminal basis:    OPTFULL  GEM_TYPE=SLATER  BETA=1.0  NGEM=6

 Optimizing Gaussian exponents for each gem_beta

 Geminal optimization for beta= 1.0000
 Weight function:   m=0, omega= 1.4646

 Augmented Hessian optimization of geminal fit. Trust ratio= 0.40000
 Convergence reached after   2 iterations. Final gradient= 8.66D-16, Step= 4.23D-06, Delta= 1.28D-09

 Alpha:                 0.19532     0.81920     2.85917     9.50073    35.69989   197.79328
 Coeff:                 0.27070     0.30552     0.18297     0.10986     0.06810     0.04224


 All pairs explicitly correlated. Number of r12-pairs:           28

 Excluding core orbitals from MO domains

 AO(A)-basis ORBITAL           loaded. Number of functions:     178
 RI(R)-basis CC-PVTZ-F12/OPTRI loaded. Number of functions:     314
 DF-basis AUG-CC-PVTZ/JKFIT    loaded. Number of functions:     392

 Screening thresholds:   THRAO=  1.00D-10  THRMO=  1.00D-09  THRPROD=  1.00D-09
                         THRSW=  1.00D-05  THROV=  1.00D-12  THRAOF12= 1.00D-08

 CPU time for Fock operators                      1.63 sec

 Construction of ABS:
 Smallest eigenvalue of S          4.36E-04  (threshold= 1.00E-08)
 Ratio eigmin/eigmax               5.56E-05  (threshold= 1.00E-09)
 Smallest eigenvalue of S kept     4.36E-04  (threshold= 4.36E-04, 0 functions deleted, 314 kept)

 Construction of CABS:
 Smallest eigenvalue of S          7.26E-07  (threshold= 1.00E-08)
 Ratio eigmin/eigmax               7.26E-07  (threshold= 1.00E-09)
 Smallest eigenvalue of S kept     7.26E-07  (threshold= 7.26E-07, 0 functions deleted, 314 kept)

 CPU time for CABS singles                        0.05 sec

 CABS-singles contribution of  -0.00135363 patched into reference energy.
 New reference energy        -115.10013354

 AO(A)-basis ORBITAL           loaded. Number of functions:     178
 RI(R)-basis CC-PVTZ-F12/OPTRI loaded. Number of functions:     314
 DF-basis AUG-CC-PVTZ/MP2FIT   loaded. Number of functions:     396

 Screening thresholds:   THRAO=  1.00D-10  THRMO=  1.00D-09  THRPROD=  1.00D-09
                         THRSW=  1.00D-05  THROV=  1.00D-12  THRAOF12= 1.00D-08

 CPU time for 3-index integral evaluation         3.62 sec
 CPU time for first  half transformation          0.37 sec ( 6673.1 MFLOP/sec)
 CPU time for sorting                             0.01 sec
 CPU time for fitting                             0.03 sec (37980.8 MFLOP/sec)
 CPU time for tilde quantities                    0.04 sec (37761.3 MFLOP/sec)
 CPU time for assembly                            0.23 sec (53711.3 MFLOP/sec)
 CPU time for tranop_f12                          0.29 sec (54690.4 MFLOP/sec)
 CPU time for f12 integrals (total)               5.12 sec, Elapsed time:      5.55 sec
 CPU time for f12 matrices (total)                0.12 sec, Elapsed time:      0.16 sec

 Diagonal F12 approximation with fixed coefficients:  TSING= 0.500,  TTRIP= 0.250 (scaled by -1/beta)

 DF-MP2-F12 energy corrections:
 ==============================
 Approx.                                    Singlet             Triplet             Total
 DF-MP2-F12/3*C(DX,FIX)                -0.038287493348     -0.004212639574     -0.042500132921
 DF-MP2-F12/3*C(FIX)                   -0.036088669982     -0.003930896111     -0.040019566093
 DF-MP2-F12/3C(FIX)                    -0.036031372619     -0.004065869542     -0.040097242160

 DF-MP2-F12 correlation energies:
 ================================
 Approx.                                    Singlet             Triplet             Ecorr            Total Energy
 DF-MP2                                -0.291095474000     -0.152363676363     -0.443459150363   -115.543592694455
 DF-MP2-F12/3*C(DX,FIX)                -0.329382967348     -0.156576315937     -0.485959283285   -115.586092827376
 DF-MP2-F12/3*C(FIX)                   -0.327184143982     -0.156294572474     -0.483478716456   -115.583612260547
 DF-MP2-F12/3C(FIX)                    -0.327126846619     -0.156429545905     -0.483556392524   -115.583689936615

 SCS-DF-MP2 energies (F_SING= 1.20000  F_TRIP= 0.62222  F_PARALLEL= 0.33333):
 ============================================================================
 SCS-DF-MP2                            -0.444118634093   -115.544252178184
 SCS-DF-MP2-F12/3*C(DX,FIX)            -0.492684824067   -115.592818368158
 SCS-DF-MP2-F12/3*C(FIX)               -0.489870928984   -115.590004473076
 SCS-DF-MP2-F12/3C(FIX)                -0.489886155617   -115.590019699708
 Symmetry transformation completed.

 Number of N-1 electron functions:               7
 Number of N-2 electron functions:              28
 Number of singly external CSFs:              1183
 Number of doubly external CSFs:            700336
 Total number of CSFs:                      701520

 Length of J-op  integral file:             105.23 MB
 Length of K-op  integral file:             138.67 MB
 Length of 3-ext integral record:             0.00 MB

 Memory could be reduced to 48.01 Mwords without degradation in triples

 Integral transformation finished. Total CPU:   3.37 sec, npass=  1  Memory used:  24.86 MW

 Reference energy:                   -115.10013354

 Adding F12 terms to K(Cij), methodcc=6,  factor= 1.0

 ITER.      SQ.NORM     CORR.ENERGY   TOTAL ENERGY   ENERGY CHANGE        DEN1      VAR(S)    VAR(P)  DIIS     TIME  TIME/IT
   1      1.11762304    -0.45285835  -115.55299190    -0.00933280     0.00166849  0.15D-02  0.19D-02  1  1    13.56     5.33
   2      1.12503264    -0.45322018  -115.55335373    -0.00036183    -0.00904638  0.24D-04  0.23D-03  2  2    16.85     5.84
   3      1.12776214    -0.45339760  -115.55353115    -0.00017742    -0.00186511  0.15D-04  0.13D-04  3  3    20.00     5.05
   4      1.12870938    -0.45341548  -115.55354903    -0.00001788    -0.00060017  0.86D-06  0.12D-05  4  4    23.12     4.63
   5      1.12886493    -0.45341704  -115.55355058    -0.00000156    -0.00003791  0.23D-06  0.10D-06  5  5    26.29     4.40
   6      1.12890751    -0.45341468  -115.55354823     0.00000235    -0.00000423  0.36D-07  0.96D-08  6  6    29.46     4.27
   7      1.12891863    -0.45341381  -115.55354735     0.00000087    -0.00000298  0.39D-08  0.14D-08  6  1    32.65     4.18
   8      1.12892043    -0.45341387  -115.55354742    -0.00000006     0.00000033  0.67D-09  0.20D-09  6  3    35.77     4.08

 Norm of t1 vector:      0.05000738      S-energy:     0.00000010      T1 diagnostic:  0.00945051
                                                                       D1 diagnostic:  0.02003601

 Adding energy correction from Wij-K(Fij), methodcc=6  factor= 1.0

  CCSD correlation energy              -0.453413870995
  MP2-F12 correction (uncoupled)       -0.038545573382
  C*T doubles correction               -0.001164891998
  f12b correction                       0.007098776981


 Total CPU time for triples:     40.85 sec


 RESULTS
 =======

  Reference energy                   -115.098779909386
  F12 singles correction               -0.001353634705

 F12 singles corrections added to reference energy

  New reference energy               -115.100133544091

  F12a singlet correction              -0.035791890552
  F12a triplet correction              -0.003918574828
  F12a total correction                -0.039710465380

 F12a corrections for ansatz F12/3C(FIX) added to CCSD energy

  CCSD-F12a singlet pair energy        -0.351209413022
  CCSD-F12a triplet pair energy        -0.141915026537
  CCSD-F12a correlation energy         -0.493124336375

  Triples (T) contribution             -0.016014523323
  Total correlation energy             -0.509138859698

  CCSD-F12a total energy             -115.593257880466
  CCSD[T]-F12a energy                -115.609825500462
  CCSD-T-F12a energy                 -115.609028671416
 !CCSD(T)-F12a total energy          -115.609272403789

 F12b corrections for ansatz F12/3C(FIX) added to CCSD(T)-F12a energy

  CCSD-F12b singlet pair energy        -0.344572717361
  CCSD-F12b triplet pair energy        -0.141452945216
  CCSD-F12b correlation energy         -0.486025559394

  Triples (T) contribution             -0.016014523323
  Total correlation energy             -0.502040082717

  CCSD-F12b total energy             -115.586159103485
  CCSD[T]-F12b energy                -115.602726723481
  CCSD-T-F12b energy                 -115.601929894435
 !CCSD(T)-F12b total energy          -115.602173626808

 Timing summary (sec):

 STEP                 CPU(USER)    SYS     CPU(TOT)    WALL
 Transformation          3.41      1.04      4.45      6.27
 CCSD iterations        25.36      3.32     28.68     32.76
 Triples                40.85      1.03     41.88     42.01
 MP2-F12                 7.02      0.54      7.56      7.60
 F12b energy             2.53      0.15      2.68      2.70

 Program statistics:

 Available memory in ccsd:               499999646
 Min. memory needed in ccsd:               2228017
 Max. memory used in ccsd:                 2807120
 Max. memory used in cckext:               2027429 ( 9 integral passes)



 **********************************************************************************************************************************
 DATASETS  * FILE   NREC   LENGTH (MB)   RECORD NAMES
              1      20      703.18       500      610      700      900      950      970     1000      129      960     1100   
                                          VAR    BASINP    GEOM    SYMINP    ZMAT    AOBASIS   BASIS     P2S    ABASIS      S 
                                         1400     1410     1200     1210     1080     1600     1650     1300     1700     1380   
                                           T        V       H0       H01     AOSYM     SMH    MOLCAS    ERIS     OPER     JKOP   

              2       7        4.13       700     1000      520     2100     7360     7350     7000   
                                         GEOM     BASIS   MCVARS     RHF    F12ABS    EF12   

 PROGRAMS   *        TOTAL   CCSD(T)   MP2-F12    HF-SCF       INT
 CPU TIMES  *       105.65     79.20      8.83      8.12      9.37
 REAL TIME  *       197.22 SEC
 DISK USED  *         2.14 GB
 **********************************************************************************************************************************
 SETTING XXX            =    "MMM"
 SETTING POINT          =       120.00000000                                  

 *** ### CH3OH


 XXX       RCO          ROH          RCH1         RCH2         RCH3           ACOH           AOCH1          AOCH2          AOCH3         AHH1           AHH2           AHH3            ENERGY        POINT
 "MMM"   1.42077677   0.96013932   1.09174481   1.08440269   1.09168673   108.12930637   111.63866535   107.18851073   111.66506271   62.63364279   181.20000000   299.76635721   -115.60927240   120.0000
                                                  

 CCSD(T)-F12/cc-pVTZ-F12 energy=   -115.602173626808

     CCSD(T)-F12         MP2-F12          HF-SCF
   -115.60217363   -115.58375493   -115.09877991
 **********************************************************************************************************************************
 Molpro calculation terminated
