
 Primary working directories    : /tmpdir/job/2955579.undefined/molpro.ktDsMwG3Io
 Secondary working directories  : /tmpdir/job/2955579.undefined/molpro.ktDsMwG3Io
 Wavefunction directory         : /home/zcaposm/wfu/
 Main file repository           : /tmpdir/job/2955579.undefined/molpro.ktDsMwG3Io/

 id        : uclcc

 Nodes                         nprocs
 node-d00a-131.myriad.ucl.ac.uk    1

 Using customized tuning parameters: mindgm=1; mindgv=20; mindgc=4; mindgr=1; noblas=0; minvec=7
 default implementation of scratch files=df  


 Variables initialized (945), CPU time= 0.00 sec
 ***,Methanol Ground State Energy with CCSD(T)-F12 and cc-pVTZ-F12
 memory,500,m;
 
 geometry={angstrom
 c
 o , 1, rco
 h , 2, roh, 1, acoh
 h1, 1, rch1, 2, aoch1  3  ahh1
 h2, 1, rch2, 2, aoch2, 3, ahh2
 h3, 1, rch3, 2, aoch3, 3, ahh3
 }
 
                                                ! Specify the initial values of the internal coordinates (in Angstroms and degrees)
 
 rco= 1.42077677
 roh= 0.97013932
 rch1= 1.091717515605
 rch2= 1.08440070258
 rch3= 1.091717515605
 acoh= 108.12930637
 aoch1= 111.6522152299
 aoch2= 107.18733878260001
 aoch3= 111.6522152299
 ahh1=61.43364279
 ahh2=180.0
 ahh3=298.56635721
 
                                                                                 ! Use the cc-pVTZ-F12 basis set
 basis=cc-pVTZ-F12
 
 hf
 
                                                                                 ! Use explicitly correlated F12 methods
                                                                            ! First, MP2-F12 (useful for initial electronic energy)
 {mp2-f12}
 
                                                                        ! If desired, perform CCSD(T)-F12 for more accurate results
 {ccsd(t)-f12}
 
                                                                                 ! Output the energy
 xxx = "mmm"
 point = 16
 text ### CH3OH
 table,xxx,rco,roh,rch1,rch2,rch3,acoh,aoch1,aoch2,aoch3,ahh1,ahh2,ahh3,energy,point
 DIGITS, 0, 8, 8, 8, 8, 8, 8, 8, 8, 8,  8,  8,  8, 8, 4
 save,CH3OH_MEP_MP2_16.dat,new
 
 Commands  initialized (802), CPU time= 0.01 sec, 659 directives.
 Default parameters read. Elapsed time= 0.08 sec

 Checking input...
 Passed
1


                                         ***  PROGRAM SYSTEM MOLPRO  ***
                                       Copyright, TTI GmbH Stuttgart, 2015
                                    Version 2020.1 linked Oct  6 2020 12:04:11


 **********************************************************************************************************************************
 LABEL *   Methanol Ground State Energy with CCSD(T)-F12 and cc-pVTZ-F12                 
  64 bit serial version                                                                  DATE: 08-Oct-24          TIME: 17:11:37  
 **********************************************************************************************************************************

 SHA1:             8c27446f6450a7499e38f603e13c65f775101d37
 **********************************************************************************************************************************

 Memory per process:       500 MW
 Total memory per node:    500 MW

 GA preallocation disabled
 GA check disabled

 Variable memory set to 500.0 MW

 SETTING RCO            =         1.42077677                                  
 SETTING ROH            =         0.97013932                                  
 SETTING RCH1           =         1.09171752                                  
 SETTING RCH2           =         1.08440070                                  
 SETTING RCH3           =         1.09171752                                  
 SETTING ACOH           =       108.12930637                                  
 SETTING AOCH1          =       111.65221523                                  
 SETTING AOCH2          =       107.18733878                                  
 SETTING AOCH3          =       111.65221523                                  
 SETTING AHH1           =        61.43364279                                  
 SETTING AHH2           =       180.00000000                                  
 SETTING AHH3           =       298.56635721                                  
 SETTING BASIS          =    CC-PVTZ-F12


 Recomputing integrals since basis changed


 Using spherical harmonics

 Library entry C      S cc-pVTZ-F12          selected for orbital group  1
 Library entry C      P cc-pVTZ-F12          selected for orbital group  1
 Library entry C      D cc-pVTZ-F12          selected for orbital group  1
 Library entry C      F cc-pVTZ-F12          selected for orbital group  1
 Library entry O      S cc-pVTZ-F12          selected for orbital group  2
 Library entry O      P cc-pVTZ-F12          selected for orbital group  2
 Library entry O      D cc-pVTZ-F12          selected for orbital group  2
 Library entry O      F cc-pVTZ-F12          selected for orbital group  2
 Library entry H      S cc-pVTZ-F12          selected for orbital group  3
 Library entry H      P cc-pVTZ-F12          selected for orbital group  3
 Library entry H      D cc-pVTZ-F12          selected for orbital group  3


 PROGRAM * SEWARD (Integral evaluation for generally contracted gaussian basis sets)     Author: Roland Lindh, 1990

 Geometry written to block  1 of record 700

 Orientation using atomic masses  
 Molecule type: Asymmetric top
 Symmetry elements: X
 Rotational constants:      23.9321330     24.7988908    128.2693521 GHz  (calculated with average atomic masses)

 Point group  Cs  



 ATOMIC COORDINATES

 NR  ATOM    CHARGE       X              Y              Z

   1  C       6.00    0.000000000    0.025704805   -1.376787997
   2  O       8.00    0.000000000   -0.123621171    1.303935205
   3  H       1.00    0.000000000    1.584241567    1.970407278
   4  H1      1.00    1.684053272    0.983515173   -2.085820615
   5  H3      1.00   -1.684053272    0.983515173   -2.085820615
   6  H2      1.00    0.000000000   -1.895296205   -2.090271782

 Bond lengths in Bohr (Angstrom)

 1-2  2.684878979  1-4  2.063047110  1-5  2.063047110  1-6  2.049220337  2-3  1.833297617
     ( 1.420776770)     ( 1.091717516)     ( 1.091717516)     ( 1.084400703)     ( 0.970139320)

 Bond angles

  1-2-3  108.12930637   2-1-4  111.65221523   2-1-5  111.65221523   2-1-6  107.18733878

  4-1-5  109.43105099   4-1-6  108.39459424   5-1-6  108.39459424

 NUCLEAR CHARGE:                   18
 NUMBER OF PRIMITIVE AOS:         228
 NUMBER OF SYMMETRY AOS:          206
 NUMBER OF CONTRACTIONS:          178   (  114A'  +   64A"  )
 NUMBER OF INNER CORE ORBITALS:     0   (    0A'  +    0A"  )
 NUMBER OF OUTER CORE ORBITALS:     2   (    2A'  +    0A"  )
 NUMBER OF VALENCE ORBITALS:       12   (    9A'  +    3A"  )


 NUCLEAR REPULSION ENERGY   40.29259212

 Eigenvalues of metric

         1 0.880E-04 0.189E-03 0.310E-03 0.461E-03 0.495E-03 0.560E-03 0.617E-03 0.622E-03
         2 0.323E-03 0.570E-03 0.687E-03 0.178E-02 0.339E-02 0.499E-02 0.645E-02 0.904E-02


 Contracted 2-electron integrals neglected if value below      1.0D-11
 AO integral compression algorithm  1   Integral accuracy      1.0D-11

     331.612 MB (compressed) written to integral file ( 53.5%)


 NUMBER OF SORTED TWO-ELECTRON INTEGRALS:   64554730.     BUFFER LENGTH:  32768
 NUMBER OF SEGMENTS:   5  SEGMENT LENGTH:   15997996      RECORD LENGTH: 524288

 Memory used in sort:      16.56 MW

 SORT1 READ    77497885. AND WROTE    63553668. INTEGRALS IN    184 RECORDS. CPU TIME:     2.45 SEC, REAL TIME:   250.04 SEC
 SORT2 READ    63553668. AND WROTE    64554730. INTEGRALS IN   1265 RECORDS. CPU TIME:     1.39 SEC, REAL TIME:   405.94 SEC

 FILE SIZES:   FILE 1:   362.5 MBYTE,  FILE 4:   771.8 MBYTE,   TOTAL:   1134.3 MBYTE

 OPERATOR DM      FOR CENTER  0  COORDINATES:    0.000000    0.000000    0.000000


 **********************************************************************************************************************************
 DATASETS  * FILE   NREC   LENGTH (MB)   RECORD NAMES
              1      19      311.83       500      610      700      900      950      970     1000      129      960     1100   
                                          VAR    BASINP    GEOM    SYMINP    ZMAT    AOBASIS   BASIS     P2S    ABASIS      S 
                                         1400     1410     1200     1210     1080     1600     1650     1300     1700   
                                           T        V       H0       H01     AOSYM     SMH    MOLCAS    ERIS     OPER   

 PROGRAMS   *        TOTAL       INT
 CPU TIMES  *         7.65      7.53
 REAL TIME  *       777.64 SEC
 DISK USED  *         1.13 GB
 **********************************************************************************************************************************


 PROGRAM * RHF-SCF (CLOSED SHELL)       Authors: W. Meyer, H.-J. Werner


 NUMBER OF ELECTRONS:       9+    9-
 CONVERGENCE THRESHOLDS:    1.00E-05 (Density)    1.00E-07 (Energy)
 MAX. NUMBER OF ITERATIONS:       60
 INTERPOLATION TYPE:            DIIS
 INTERPOLATION STEPS:              2 (START)      1 (STEP)
 LEVEL SHIFTS:                  0.00 (CLOSED)  0.00 (OPEN) 



 Orbital guess generated from atomic densities. Full valence occupancy:   11   3

 Molecular orbital dump at record        2100.2

 Initial occupancy:   7   2

 ITERATION    DDIFF          GRAD             ENERGY        2-EL.EN.            DIPOLE MOMENTS         DIIS   ORB.
    1      0.000D+00      0.000D+00      -115.06169934    164.410915    0.00000    0.91557   -0.46946    0    start
    2      0.000D+00      0.668D-02      -115.09011231    161.808412    0.00000    0.49897   -0.30004    1    diag
    3      0.651D-02      0.367D-02      -115.09767178    163.084478    0.00000    0.60430   -0.39334    2    diag
    4      0.222D-02      0.724D-03      -115.09821155    162.905903    0.00000    0.59852   -0.38937    3    diag
    5      0.595D-03      0.147D-03      -115.09824717    162.917485    0.00000    0.59432   -0.39448    4    diag
    6      0.168D-03      0.278D-04      -115.09824884    162.915279    0.00000    0.59440   -0.39534    5    diag
    7      0.485D-04      0.607D-05      -115.09824892    162.914854    0.00000    0.59420   -0.39565    6    diag
    8      0.124D-04      0.162D-05      -115.09824892    162.915240    0.00000    0.59418   -0.39568    7    diag
    9      0.249D-05      0.505D-06      -115.09824892    162.915063    0.00000    0.59417   -0.39569    0    orth

 Final occupancy:   7   2

 !RHF STATE  1.1 Energy              -115.098248924618
 Nuclear energy                        40.29259212
 One-electron energy                 -236.84837252
 Two-electron energy                   81.45753147
 Virial quotient                       -1.00117660
 !RHF STATE  1.1 Dipole moment          0.00000000     0.59416516    -0.39568823
 Dipole moment /Debye                   0.00000000     1.51011829    -1.00567330

 Orbital energies:

         1.1          2.1          3.1          4.1          5.1          6.1          7.1          8.1          9.1
    -20.557269   -11.269656    -1.354649    -0.925389    -0.688793    -0.594025    -0.503632     0.054578     0.064957

         1.2          2.2          3.2          4.2
     -0.621367    -0.451874     0.073821     0.181504


 HOMO      2.2    -0.451874 =     -12.2961eV
 LUMO      8.1     0.054578 =       1.4852eV
 LUMO-HOMO         0.506453 =      13.7813eV


 **********************************************************************************************************************************
 DATASETS  * FILE   NREC   LENGTH (MB)   RECORD NAMES
              1      19      311.83       500      610      700      900      950      970     1000      129      960     1100   
                                          VAR    BASINP    GEOM    SYMINP    ZMAT    AOBASIS   BASIS     P2S    ABASIS      S 
                                         1400     1410     1200     1210     1080     1600     1650     1300     1700   
                                           T        V       H0       H01     AOSYM     SMH    MOLCAS    ERIS     OPER   

              2       4        3.18       700     1000      520     2100   
                                         GEOM     BASIS   MCVARS     RHF  

 PROGRAMS   *        TOTAL    HF-SCF       INT
 CPU TIMES  *        10.92      3.27      7.53
 REAL TIME  *       809.40 SEC
 DISK USED  *         1.13 GB
 **********************************************************************************************************************************


 PROGRAM * MP2 (Closed-shell)     Authors: C. Hampel, H.-J. Werner, 1991, M. Deegan, P.J. Knowles, 1992

                                   MP2-F12 implementation by H.-J. Werner, 2007

                   Density fitting integral evaluation by F.R. Manby, 2003,2007, G. Knizia, 2010


 Basis set AUG-CC-PVTZ/JKFIT generated.  Number of basis functions:   392 
 Basis set CC-PVTZ-F12/OPTRI generated.  Number of basis functions:   314 
 Basis set AUG-CC-PVTZ/MP2FIT generated. Number of basis functions:   396 

 Convergence thresholds:  THRVAR = 1.00D-08  THRDEN = 1.00D-06

 Number of core orbitals:           2 (   2   0 )
 Number of closed-shell orbitals:   7 (   5   2 )
 Number of external orbitals:     169 ( 107  62 )

 Molecular orbitals read from record     2100.2  Type=RHF/CANONICAL (state 1.1)

 MP2-F12 correlation treatment (H.-J. Werner, 2006)
 ==================================================

 Using MP2-F12 with ansatz 3C(FIX)

 Using projected zeroth-order Hamiltonian (+Z)

 FOCKRIB=T FOCKRIC=T FOCKRIP=T CABSP=T CABSA=T CABSK=T CABSF=T GBC=F EBC=F DMAT=T NOFIK=T NOPAO=1 SOLVE=-1  USEPAO=0
 EXCH_A= T EXCH_B= F EXCH_C= F EXCH_P= F

 Geminal basis:    OPTFULL  GEM_TYPE=SLATER  BETA=1.0  NGEM=6

 Optimizing Gaussian exponents for each gem_beta

 Geminal optimization for beta= 1.0000
 Weight function:   m=0, omega= 1.4646

 Augmented Hessian optimization of geminal fit. Trust ratio= 0.40000
 Convergence reached after   2 iterations. Final gradient= 8.66D-16, Step= 4.23D-06, Delta= 1.28D-09

 Alpha:                 0.19532     0.81920     2.85917     9.50073    35.69989   197.79328
 Coeff:                 0.27070     0.30552     0.18297     0.10986     0.06810     0.04224


 Symmetry turned off. Reference energy:       -115.098248924618

 All pairs explicitly correlated. Number of r12-pairs:           28

 Excluding core orbitals from MO domains

 AO(A)-basis ORBITAL           loaded. Number of functions:     178
 RI(R)-basis CC-PVTZ-F12/OPTRI loaded. Number of functions:     314
 DF-basis AUG-CC-PVTZ/JKFIT    loaded. Number of functions:     392

 Screening thresholds:   THRAO=  1.00D-10  THRMO=  1.00D-09  THRPROD=  1.00D-09
                         THRSW=  1.00D-05  THROV=  1.00D-12  THRAOF12= 1.00D-08

 CPU time for Fock operators                      5.73 sec

 Construction of ABS:
 Smallest eigenvalue of S          4.39E-04  (threshold= 1.00E-08)
 Ratio eigmin/eigmax               5.62E-05  (threshold= 1.00E-09)
 Smallest eigenvalue of S kept     4.39E-04  (threshold= 4.39E-04, 0 functions deleted, 314 kept)

 Construction of CABS:
 Smallest eigenvalue of S          7.29E-07  (threshold= 1.00E-08)
 Ratio eigmin/eigmax               7.29E-07  (threshold= 1.00E-09)
 Smallest eigenvalue of S kept     7.29E-07  (threshold= 7.29E-07, 0 functions deleted, 314 kept)

 CPU time for CABS singles                        0.04 sec

 CABS-singles contribution of  -0.00134440 patched into reference energy.
 New reference energy        -115.09959332

 AO(A)-basis ORBITAL           loaded. Number of functions:     178
 RI(R)-basis CC-PVTZ-F12/OPTRI loaded. Number of functions:     314
 DF-basis AUG-CC-PVTZ/MP2FIT   loaded. Number of functions:     396

 Screening thresholds:   THRAO=  1.00D-10  THRMO=  1.00D-09  THRPROD=  1.00D-09
                         THRSW=  1.00D-05  THROV=  1.00D-12  THRAOF12= 1.00D-08

 CPU time for 3-index integral evaluation         3.43 sec
 CPU time for first  half transformation          0.39 sec ( 6330.9 MFLOP/sec)
 CPU time for second half transformation          0.01 sec ( 6217.0 MFLOP/sec)
 CPU time for sorting                             0.03 sec
 CPU time for fitting                             0.02 sec (56971.3 MFLOP/sec)
 CPU time for tilde quantities                    0.03 sec (50348.4 MFLOP/sec)
 CPU time for assembly                            0.25 sec (49414.4 MFLOP/sec)
 CPU time for tranop_f12                          0.28 sec (56643.7 MFLOP/sec)
 CPU time for f12 integrals (total)               7.41 sec, Elapsed time:      7.76 sec
 CPU time for f12 matrices (total)                0.12 sec, Elapsed time:      0.22 sec

 Diagonal F12 approximation with fixed coefficients:  TSING= 0.500,  TTRIP= 0.250 (scaled by -1/beta)

 DF-MP2-F12 energy corrections:
 ==============================
 Approx.                                    Singlet             Triplet             Total
 DF-MP2-F12/3*C(DX,FIX)                -0.038260271469     -0.004207902809     -0.042468174278
 DF-MP2-F12/3*C(FIX)                   -0.036069170364     -0.003927773920     -0.039996944284
 DF-MP2-F12/3C(FIX)                    -0.036012224024     -0.004062786012     -0.040075010036

 DF-MP2-F12 correlation energies:
 ================================
 Approx.                                    Singlet             Triplet             Ecorr            Total Energy
 DF-MP2                                -0.291373516986     -0.152521329651     -0.443894846637   -115.543488166631
 DF-MP2-F12/3*C(DX,FIX)                -0.329633788456     -0.156729232459     -0.486363020915   -115.585956340909
 DF-MP2-F12/3*C(FIX)                   -0.327442687350     -0.156449103571     -0.483891790921   -115.583485110915
 DF-MP2-F12/3C(FIX)                    -0.327385741010     -0.156584115663     -0.483969856673   -115.583563176667

 SCS-DF-MP2 energies (F_SING= 1.20000  F_TRIP= 0.62222  F_PARALLEL= 0.33333):
 ============================================================================
 SCS-DF-MP2                            -0.444550381055   -115.544143701049
 SCS-DF-MP2-F12/3*C(DX,FIX)            -0.493080957455   -115.592674277449
 SCS-DF-MP2-F12/3*C(FIX)               -0.490277333709   -115.589870653703
 SCS-DF-MP2-F12/3C(FIX)                -0.490293005625   -115.589886325618

 Symmetry restored.
 Symmetry transformation completed.

 Number of N-1 electron functions:               7
 Number of N-2 electron functions:              28
 Number of singly external CSFs:               659
 Number of doubly external CSFs:            355020
 Total number of CSFs:                      355680

 Length of J-op  integral file:             103.49 MB
 Length of K-op  integral file:             127.95 MB

 Integral transformation finished. Total CPU:   0.48 sec, npass=  1  Memory used:   0.67 MW

 ITER.      SQ.NORM     CORR.ENERGY   TOTAL ENERGY   ENERGY CHANGE     VAR   MIC
   1      1.00000000    -0.44396134  -115.54355466    -0.44396134  0.00D+00   0
   2      1.11511540    -0.44396134  -115.54355466    -0.00000000  0.41D-15   0

 Solving MP2-F12 equations

   1      1.11507890    -0.48327872  -115.58287204    -0.03931738 -0.37D-04   0
   2      1.11507890    -0.48403492  -115.58362824    -0.00075620  0.20D-17   0
   3      1.11507890    -0.48403492  -115.58362824     0.00000000 -0.50D-19   0

 CPU TIME FOR ITERATIVE MP2:    0.04 SEC


 MP2-F12 energy corrections:
 ===========================
 Approx.                                    Singlet             Triplet             Total
 MP2-F12/3*C(DX,FIX)                   -0.038260271469     -0.004207902809     -0.042468174278
 MP2-F12/3*C(FIX)                      -0.036069170364     -0.003927773920     -0.039996944284
 MP2-F12/3C(FIX)                       -0.036009521527     -0.004064060991     -0.040073582518

 MP2-F12 correlation energies:
 =============================
 Approx.                                    Singlet             Triplet             Ecorr            Total Energy
 MP2                                   -0.291556835399     -0.152404501026     -0.443961336425   -115.543554656419
 MP2-F12/3*C(DX,FIX)                   -0.329817106868     -0.156612403835     -0.486429510703   -115.586022830697
 MP2-F12/3*C(FIX)                      -0.327626005763     -0.156332274946     -0.483958280709   -115.583551600703
 MP2-F12/3C(FIX)                       -0.327566356926     -0.156468562017     -0.484034918943   -115.583628238937

 SCS-MP2 energies (F_SING= 1.20000  F_TRIP= 0.62222  F_PARALLEL= 0.33333):
 =========================================================================
 SCS-MP2                               -0.444697669784   -115.544290989777
 SCS-MP2-F12/3*C(DX,FIX)               -0.493228246184   -115.592821566177
 SCS-MP2-F12/3*C(FIX)                  -0.490424622438   -115.590017942431
 SCS-MP2-F12/3C(FIX)                   -0.490437844677   -115.590031164671


  Reference energy                   -115.098248924618
  F12 singles correction               -0.001344395376

 F12 singles corrections added to reference energy

  New reference energy               -115.099593319994

  F12/3C(F) singlet correction         -0.036009521527
  F12/3C(F) triplet correction         -0.004064060991
  F12/3C(F) total correction           -0.040073582518
  MP2-F12/3C(F) singlet pair energy    -0.327566356926
  MP2-F12/3C(F) triplet pair energy    -0.156468562017
  MP2-F12/3C(F) correlation energy     -0.484034918943

 !MP2-F12/3C(F) total energy         -115.583628238937


 **********************************************************************************************************************************
 DATASETS  * FILE   NREC   LENGTH (MB)   RECORD NAMES
              1      20      317.58       500      610      700      900      950      970     1000      129      960     1100   
                                          VAR    BASINP    GEOM    SYMINP    ZMAT    AOBASIS   BASIS     P2S    ABASIS      S 
                                         1400     1410     1200     1210     1080     1600     1650     1300     1700     1380   
                                           T        V       H0       H01     AOSYM     SMH    MOLCAS    ERIS     OPER     JKOP   

              2       7        3.55       700     1000      520     2100     7360     7350     7000   
                                         GEOM     BASIS   MCVARS     RHF    F12ABS    EF12   

 PROGRAMS   *        TOTAL   MP2-F12    HF-SCF       INT
 CPU TIMES  *        24.95     14.02      3.27      7.53
 REAL TIME  *       824.88 SEC
 DISK USED  *         1.13 GB
 **********************************************************************************************************************************


 PROGRAM * CCSD (Closed-shell coupled cluster)     Authors: C. Hampel, H.-J. Werner, 1991, M. Deegan, P.J. Knowles, 1992

                                  CCSD-F12 implementation by  H.-J. Werner, 2007

                   Density fitting integral evaluation by F.R. Manby, 2003,2007, G. Knizia, 2010



 Convergence thresholds:  THRVAR = 1.00D-08  THRDEN = 1.00D-06

 CCSD(T)     terms to be evaluated (factor= 1.000)


 Number of core orbitals:           2 (   2   0 )
 Number of closed-shell orbitals:   7 (   5   2 )
 Number of external orbitals:     169 ( 107  62 )

 Molecular orbitals read from record     2100.2  Type=RHF/CANONICAL (state 1.1)

 MP2-F12 correlation treatment (H.-J. Werner, 2006)
 ==================================================

 Using MP2-F12 with ansatz 3C(FIX)

 Using projected zeroth-order Hamiltonian (+Z)

 FOCKRIB=T FOCKRIC=T FOCKRIP=T CABSP=T CABSA=T CABSK=T CABSF=T GBC=F EBC=F DMAT=T NOFIK=T NOPAO=1 SOLVE=-1  USEPAO=0
 EXCH_A= T EXCH_B= F EXCH_C= F EXCH_P= F

 Geminal basis:    OPTFULL  GEM_TYPE=SLATER  BETA=1.0  NGEM=6

 Optimizing Gaussian exponents for each gem_beta

 Geminal optimization for beta= 1.0000
 Weight function:   m=0, omega= 1.4646

 Augmented Hessian optimization of geminal fit. Trust ratio= 0.40000
 Convergence reached after   2 iterations. Final gradient= 8.66D-16, Step= 4.23D-06, Delta= 1.28D-09

 Alpha:                 0.19532     0.81920     2.85917     9.50073    35.69989   197.79328
 Coeff:                 0.27070     0.30552     0.18297     0.10986     0.06810     0.04224


 Symmetry turned off. Reference energy:       -115.098248924618

 All pairs explicitly correlated. Number of r12-pairs:           28

 Excluding core orbitals from MO domains

 AO(A)-basis ORBITAL           loaded. Number of functions:     178
 RI(R)-basis CC-PVTZ-F12/OPTRI loaded. Number of functions:     314
 DF-basis AUG-CC-PVTZ/JKFIT    loaded. Number of functions:     392

 Screening thresholds:   THRAO=  1.00D-10  THRMO=  1.00D-09  THRPROD=  1.00D-09
                         THRSW=  1.00D-05  THROV=  1.00D-12  THRAOF12= 1.00D-08

 CPU time for Fock operators                      5.51 sec

 Construction of ABS:
 Smallest eigenvalue of S          4.39E-04  (threshold= 1.00E-08)
 Ratio eigmin/eigmax               5.62E-05  (threshold= 1.00E-09)
 Smallest eigenvalue of S kept     4.39E-04  (threshold= 4.39E-04, 0 functions deleted, 314 kept)

 Construction of CABS:
 Smallest eigenvalue of S          7.29E-07  (threshold= 1.00E-08)
 Ratio eigmin/eigmax               7.29E-07  (threshold= 1.00E-09)
 Smallest eigenvalue of S kept     7.29E-07  (threshold= 7.29E-07, 0 functions deleted, 314 kept)

 CPU time for CABS singles                        0.04 sec

 CABS-singles contribution of  -0.00134440 patched into reference energy.
 New reference energy        -115.09959332

 AO(A)-basis ORBITAL           loaded. Number of functions:     178
 RI(R)-basis CC-PVTZ-F12/OPTRI loaded. Number of functions:     314
 DF-basis AUG-CC-PVTZ/MP2FIT   loaded. Number of functions:     396

 Screening thresholds:   THRAO=  1.00D-10  THRMO=  1.00D-09  THRPROD=  1.00D-09
                         THRSW=  1.00D-05  THROV=  1.00D-12  THRAOF12= 1.00D-08

 CPU time for 3-index integral evaluation         3.52 sec
 CPU time for first  half transformation          0.27 sec ( 9144.6 MFLOP/sec)
 CPU time for sorting                             0.03 sec
 CPU time for fitting                             0.02 sec (56971.3 MFLOP/sec)
 CPU time for tilde quantities                    0.02 sec (75522.6 MFLOP/sec)
 CPU time for assembly                            0.22 sec (56152.7 MFLOP/sec)
 CPU time for tranop_f12                          0.31 sec (51162.0 MFLOP/sec)
 CPU time for f12 integrals (total)               7.34 sec, Elapsed time:      7.73 sec
 CPU time for f12 matrices (total)                0.10 sec, Elapsed time:      0.15 sec

 Diagonal F12 approximation with fixed coefficients:  TSING= 0.500,  TTRIP= 0.250 (scaled by -1/beta)

 DF-MP2-F12 energy corrections:
 ==============================
 Approx.                                    Singlet             Triplet             Total
 DF-MP2-F12/3*C(DX,FIX)                -0.038260271469     -0.004207902809     -0.042468174278
 DF-MP2-F12/3*C(FIX)                   -0.036069170364     -0.003927773920     -0.039996944284
 DF-MP2-F12/3C(FIX)                    -0.036012224024     -0.004062786012     -0.040075010036

 DF-MP2-F12 correlation energies:
 ================================
 Approx.                                    Singlet             Triplet             Ecorr            Total Energy
 DF-MP2                                -0.291373516986     -0.152521329651     -0.443894846637   -115.543488166631
 DF-MP2-F12/3*C(DX,FIX)                -0.329633788456     -0.156729232459     -0.486363020915   -115.585956340909
 DF-MP2-F12/3*C(FIX)                   -0.327442687350     -0.156449103571     -0.483891790921   -115.583485110915
 DF-MP2-F12/3C(FIX)                    -0.327385741010     -0.156584115663     -0.483969856673   -115.583563176667

 SCS-DF-MP2 energies (F_SING= 1.20000  F_TRIP= 0.62222  F_PARALLEL= 0.33333):
 ============================================================================
 SCS-DF-MP2                            -0.444550381055   -115.544143701049
 SCS-DF-MP2-F12/3*C(DX,FIX)            -0.493080957455   -115.592674277449
 SCS-DF-MP2-F12/3*C(FIX)               -0.490277333709   -115.589870653703
 SCS-DF-MP2-F12/3C(FIX)                -0.490293005625   -115.589886325618

 Symmetry restored.
 Symmetry transformation completed.

 Number of N-1 electron functions:               7
 Number of N-2 electron functions:              28
 Number of singly external CSFs:               659
 Number of doubly external CSFs:            355020
 Total number of CSFs:                      355680

 Length of J-op  integral file:             103.62 MB
 Length of K-op  integral file:             127.95 MB
 Length of 3-ext integral record:             0.00 MB

 Memory could be reduced to 24.20 Mwords without degradation in triples

 Integral transformation finished. Total CPU:   1.35 sec, npass=  1  Memory used:   7.45 MW

 Reference energy:                   -115.09959332

 Adding F12 terms to K(Cij), methodcc=6,  factor= 1.0

 ITER.      SQ.NORM     CORR.ENERGY   TOTAL ENERGY   ENERGY CHANGE        DEN1      VAR(S)    VAR(P)  DIIS     TIME  TIME/IT
   1      1.11794418    -0.45323031  -115.55282363    -0.00926898     0.00179588  0.15D-02  0.19D-02  1  1    15.35     1.02
   2      1.12540560    -0.45359451  -115.55318783    -0.00036420    -0.00909455  0.25D-04  0.23D-03  2  2    16.25     1.02
   3      1.12816419    -0.45377447  -115.55336779    -0.00017995    -0.00187873  0.15D-04  0.13D-04  3  3    17.16     1.01
   4      1.12912515    -0.45379289  -115.55338621    -0.00001843    -0.00060664  0.88D-06  0.12D-05  4  4    18.07     1.01
   5      1.12928356    -0.45379448  -115.55338780    -0.00000159    -0.00003851  0.24D-06  0.10D-06  5  5    18.97     1.01
   6      1.12932712    -0.45379211  -115.55338543     0.00000238    -0.00000435  0.37D-07  0.99D-08  6  6    19.89     1.01
   7      1.12933858    -0.45379122  -115.55338454     0.00000089    -0.00000304  0.41D-08  0.15D-08  6  1    20.81     1.02
   8      1.12934045    -0.45379128  -115.55338460    -0.00000006     0.00000035  0.70D-09  0.21D-09  6  3    21.74     1.02

 Norm of t1 vector:      0.05029304      S-energy:    -0.00000038      T1 diagnostic:  0.00950449
                                                                       D1 diagnostic:  0.02019820

 Adding energy correction from Wij-K(Fij), methodcc=6  factor= 1.0

  CCSD correlation energy              -0.453791282490
  MP2-F12 correction (uncoupled)       -0.038522036652
  C*T doubles correction               -0.001165004183
  f12b correction                       0.007101441377


 Total CPU time for triples:     13.66 sec


 RESULTS
 =======

  Reference energy                   -115.098248924618
  F12 singles correction               -0.001344395376

 F12 singles corrections added to reference energy

  New reference energy               -115.099593319994

  F12a singlet correction              -0.035771647590
  F12a triplet correction              -0.003915393245
  F12a total correction                -0.039687040835

 F12a corrections for ansatz F12/3C(FIX) added to CCSD energy

  CCSD-F12a singlet pair energy        -0.351516749388
  CCSD-F12a triplet pair energy        -0.141961195331
  CCSD-F12a correlation energy         -0.493478323325

  Triples (T) contribution             -0.016072460912
  Total correlation energy             -0.509550784236

  CCSD-F12a total energy             -115.593071643318
  CCSD[T]-F12a energy                -115.609701594067
  CCSD-T-F12a energy                 -115.608898353536
 !CCSD(T)-F12a total energy          -115.609144104230

 F12b corrections for ansatz F12/3C(FIX) added to CCSD(T)-F12a energy

  CCSD-F12b singlet pair energy        -0.344877175507
  CCSD-F12b triplet pair energy        -0.141499327835
  CCSD-F12b correlation energy         -0.486376881948

  Triples (T) contribution             -0.016072460912
  Total correlation energy             -0.502449342859

  CCSD-F12b total energy             -115.585970201941
  CCSD[T]-F12b energy                -115.602600152690
  CCSD-T-F12b energy                 -115.601796912159
 !CCSD(T)-F12b total energy          -115.602042662853

 Timing summary (sec):

 STEP                 CPU(USER)    SYS     CPU(TOT)    WALL
 Transformation          1.36      0.21      1.57      1.59
 CCSD iterations         7.31      0.77      8.08      8.15
 Triples                13.66      0.51     14.17     14.22
 MP2-F12                13.08      0.58     13.66     13.82
 F12b energy             0.73      0.06      0.79      0.79

 Program statistics:

 Available memory in ccsd:               499999650
 Min. memory needed in ccsd:               1149135
 Max. memory used in ccsd:                 1443104
 Max. memory used in cckext:               1888566 ( 9 integral passes)



 **********************************************************************************************************************************
 DATASETS  * FILE   NREC   LENGTH (MB)   RECORD NAMES
              1      20      386.14       500      610      700      900      950      970     1000      129      960     1100   
                                          VAR    BASINP    GEOM    SYMINP    ZMAT    AOBASIS   BASIS     P2S    ABASIS      S 
                                         1400     1410     1200     1210     1080     1600     1650     1300     1700     1380   
                                           T        V       H0       H01     AOSYM     SMH    MOLCAS    ERIS     OPER     JKOP   

              2       7        3.55       700     1000      520     2100     7360     7350     7000   
                                         GEOM     BASIS   MCVARS     RHF    F12ABS    EF12   

 PROGRAMS   *        TOTAL   CCSD(T)   MP2-F12    HF-SCF       INT
 CPU TIMES  *        61.12     36.17     14.02      3.27      7.53
 REAL TIME  *       863.51 SEC
 DISK USED  *         1.13 GB
 **********************************************************************************************************************************
 SETTING XXX            =    "MMM"
 SETTING POINT          =        16.00000000                                  

 *** ### CH3OH


 XXX       RCO          ROH          RCH1         RCH2         RCH3           ACOH           AOCH1          AOCH2          AOCH3         AHH1           AHH2           AHH3            ENERGY       POINT
 "MMM"   1.42077677   0.97013932   1.09171752   1.08440070   1.09171752   108.12930637   111.65221523   107.18733878   111.65221523   61.43364279   180.00000000   298.56635721   -115.60914410   16.0000
                                                  

 CCSD(T)-F12/cc-pVTZ-F12 energy=   -115.602042662853

     CCSD(T)-F12         MP2-F12          HF-SCF
   -115.60204266   -115.58362824   -115.09824892
 **********************************************************************************************************************************
 Molpro calculation terminated
