
 Primary working directories    : /tmpdir/job/2955655.undefined/molpro.vTM99m7TFH
 Secondary working directories  : /tmpdir/job/2955655.undefined/molpro.vTM99m7TFH
 Wavefunction directory         : /home/zcaposm/wfu/
 Main file repository           : /tmpdir/job/2955655.undefined/molpro.vTM99m7TFH/

 id        : uclcc

 Nodes                         nprocs
 node-d00a-054.myriad.ucl.ac.uk    1

 Using customized tuning parameters: mindgm=1; mindgv=20; mindgc=4; mindgr=1; noblas=0; minvec=7
 default implementation of scratch files=df  


 Variables initialized (945), CPU time= 0.01 sec
 ***,Methanol Ground State Energy with CCSD(T)-F12 and cc-pVTZ-F12
 memory,500,m;
 
 geometry={angstrom
 c
 o , 1, rco
 h , 2, roh, 1, acoh
 h1, 1, rch1, 2, aoch1  3  ahh1
 h2, 1, rch2, 2, aoch2, 3, ahh2
 h3, 1, rch3, 2, aoch3, 3, ahh3
 }
 
                                                ! Specify the initial values of the internal coordinates (in Angstroms and degrees)
 
 rco= 1.42077677
 roh= 0.96013932
 rch1= 1.091717515605
 rch2= 1.08440070258
 rch3= 1.091717515605
 acoh= 108.12930637
 aoch1= 111.6522152299
 aoch2= 107.18733878260001
 aoch3= 111.6522152299
 ahh1=61.433642790000015
 ahh2=179.89793792738405
 ahh3=298.66841928261596
 
                                                                                 ! Use the cc-pVTZ-F12 basis set
 basis=cc-pVTZ-F12
 
 hf
 
                                                                                 ! Use explicitly correlated F12 methods
                                                                            ! First, MP2-F12 (useful for initial electronic energy)
 {mp2-f12}
 
                                                                        ! If desired, perform CCSD(T)-F12 for more accurate results
 {ccsd(t)-f12}
 
                                                                                 ! Output the energy
 xxx = "mmm"
 point = 86
 text ### CH3OH
 table,xxx,rco,roh,rch1,rch2,rch3,acoh,aoch1,aoch2,aoch3,ahh1,ahh2,ahh3,energy,point
 DIGITS, 0, 8, 8, 8, 8, 8, 8, 8, 8, 8,  8,  8,  8, 8, 4
 save,CH3OH_MEP_MP2_86.dat,new
 
 Commands  initialized (802), CPU time= 0.01 sec, 659 directives.
 Default parameters read. Elapsed time= 1.09 sec

 Checking input...
 Passed
1


                                         ***  PROGRAM SYSTEM MOLPRO  ***
                                       Copyright, TTI GmbH Stuttgart, 2015
                                    Version 2020.1 linked Oct  6 2020 12:04:11


 **********************************************************************************************************************************
 LABEL *   Methanol Ground State Energy with CCSD(T)-F12 and cc-pVTZ-F12                 
  64 bit serial version                                                                  DATE: 08-Oct-24          TIME: 17:30:47  
 **********************************************************************************************************************************

 SHA1:             8c27446f6450a7499e38f603e13c65f775101d37
 **********************************************************************************************************************************

 Memory per process:       500 MW
 Total memory per node:    500 MW

 GA preallocation disabled
 GA check disabled

 Variable memory set to 500.0 MW

 SETTING RCO            =         1.42077677                                  
 SETTING ROH            =         0.96013932                                  
 SETTING RCH1           =         1.09171752                                  
 SETTING RCH2           =         1.08440070                                  
 SETTING RCH3           =         1.09171752                                  
 SETTING ACOH           =       108.12930637                                  
 SETTING AOCH1          =       111.65221523                                  
 SETTING AOCH2          =       107.18733878                                  
 SETTING AOCH3          =       111.65221523                                  
 SETTING AHH1           =        61.43364279                                  
 SETTING AHH2           =       179.89793793                                  
 SETTING AHH3           =       298.66841928                                  
 SETTING BASIS          =    CC-PVTZ-F12


 Recomputing integrals since basis changed


 Using spherical harmonics

 Library entry C      S cc-pVTZ-F12          selected for orbital group  1
 Library entry C      P cc-pVTZ-F12          selected for orbital group  1
 Library entry C      D cc-pVTZ-F12          selected for orbital group  1
 Library entry C      F cc-pVTZ-F12          selected for orbital group  1
 Library entry O      S cc-pVTZ-F12          selected for orbital group  2
 Library entry O      P cc-pVTZ-F12          selected for orbital group  2
 Library entry O      D cc-pVTZ-F12          selected for orbital group  2
 Library entry O      F cc-pVTZ-F12          selected for orbital group  2
 Library entry H      S cc-pVTZ-F12          selected for orbital group  3
 Library entry H      P cc-pVTZ-F12          selected for orbital group  3
 Library entry H      D cc-pVTZ-F12          selected for orbital group  3


 PROGRAM * SEWARD (Integral evaluation for generally contracted gaussian basis sets)     Author: Roland Lindh, 1990

 Geometry written to block  1 of record 700

 Orientation using atomic masses  
 Molecule type: Asymmetric top
 Rotational constants:      23.9568760     24.8103037    128.7779784 GHz  (calculated with average atomic masses)

 Point group  C1  



 ATOMIC COORDINATES

 NR  ATOM    CHARGE       X              Y              Z

   1  C       6.00   -0.000311974    0.024948050   -1.376599699
   2  O       8.00   -0.000402617   -0.122007391    1.304254498
   3  H       1.00    0.006322285    1.568820466    1.962361318
   4  H1      1.00    1.687340148    0.975544374   -2.086782999
   5  H2      1.00   -0.004460977   -1.896678678   -2.088384424
   6  H3      1.00   -1.679092969    0.991691217   -2.086011707

 Bond lengths in Bohr (Angstrom)

 1-2  2.684878979  1-4  2.063047110  1-5  2.049220337  1-6  2.063047110  2-3  1.814400356
     ( 1.420776770)     ( 1.091717516)     ( 1.084400703)     ( 1.091717516)     ( 0.960139320)

 Bond angles

  1-2-3  108.12930637   2-1-4  111.65221523   2-1-5  107.18733878   2-1-6  111.65221523

  4-1-5  108.31069609   4-1-6  109.35249774   5-1-6  108.56226884

 NUCLEAR CHARGE:                   18
 NUMBER OF PRIMITIVE AOS:         228
 NUMBER OF SYMMETRY AOS:          206
 NUMBER OF CONTRACTIONS:          178   (  178A   )
 NUMBER OF INNER CORE ORBITALS:     0   (    0A   )
 NUMBER OF OUTER CORE ORBITALS:     2   (    2A   )
 NUMBER OF VALENCE ORBITALS:       12   (   12A   )


 NUCLEAR REPULSION ENERGY   40.34557676

 Eigenvalues of metric

         1 0.879E-04 0.183E-03 0.309E-03 0.323E-03 0.460E-03 0.493E-03 0.560E-03 0.570E-03


 Contracted 2-electron integrals neglected if value below      1.0D-11
 AO integral compression algorithm  1   Integral accuracy      1.0D-11

     599.523 MB (compressed) written to integral file ( 50.3%)


 NUMBER OF SORTED TWO-ELECTRON INTEGRALS:  126906346.     BUFFER LENGTH:  32768
 NUMBER OF SEGMENTS:   8  SEGMENT LENGTH:   15999503      RECORD LENGTH: 524288

 Memory used in sort:      16.56 MW

 SORT1 READ   149034713. AND WROTE   124639982. INTEGRALS IN    360 RECORDS. CPU TIME:     3.76 SEC, REAL TIME:    81.84 SEC
 SORT2 READ   124639982. AND WROTE   126906346. INTEGRALS IN   2287 RECORDS. CPU TIME:     1.88 SEC, REAL TIME:    64.32 SEC

 FILE SIZES:   FILE 1:   630.7 MBYTE,  FILE 4:  1510.0 MBYTE,   TOTAL:   2140.7 MBYTE

 OPERATOR DM      FOR CENTER  0  COORDINATES:    0.000000    0.000000    0.000000


 **********************************************************************************************************************************
 DATASETS  * FILE   NREC   LENGTH (MB)   RECORD NAMES
              1      19      553.88       500      610      700      900      950      970     1000      129      960     1100   
                                          VAR    BASINP    GEOM    SYMINP    ZMAT    AOBASIS   BASIS     P2S    ABASIS      S 
                                         1400     1410     1200     1210     1080     1600     1650     1300     1700   
                                           T        V       H0       H01     AOSYM     SMH    MOLCAS    ERIS     OPER   

 PROGRAMS   *        TOTAL       INT
 CPU TIMES  *        10.19      9.92
 REAL TIME  *       181.04 SEC
 DISK USED  *         2.14 GB
 **********************************************************************************************************************************


 PROGRAM * RHF-SCF (CLOSED SHELL)       Authors: W. Meyer, H.-J. Werner


 NUMBER OF ELECTRONS:       9+    9-    SPACE SYMMETRY=1    SPIN SYMMETRY: Singlet 
 CONVERGENCE THRESHOLDS:    1.00E-05 (Density)    1.00E-07 (Energy)
 MAX. NUMBER OF ITERATIONS:       60
 INTERPOLATION TYPE:            DIIS
 INTERPOLATION STEPS:              2 (START)      1 (STEP)
 LEVEL SHIFTS:                  0.00 (CLOSED)  0.00 (OPEN) 



 Orbital guess generated from atomic densities. Full valence occupancy:   14

 Molecular orbital dump at record        2100.2

 Initial occupancy:   9

 ITERATION    DDIFF          GRAD             ENERGY        2-EL.EN.            DIPOLE MOMENTS         DIIS   ORB.
    1      0.000D+00      0.000D+00      -115.06237625    164.484228    0.00400    0.90450   -0.47801    0    start
    2      0.000D+00      0.506D-02      -115.09072873    161.902284    0.00221    0.49664   -0.30368    1    diag
    3      0.480D-02      0.277D-02      -115.09821463    163.165448    0.00260    0.59999   -0.39691    2    diag
    4      0.163D-02      0.546D-03      -115.09874702    162.988872    0.00256    0.59487   -0.39236    3    diag
    5      0.436D-03      0.110D-03      -115.09878143    163.000345    0.00253    0.59089   -0.39718    4    diag
    6      0.121D-03      0.205D-04      -115.09878299    162.998125    0.00253    0.59103   -0.39797    5    diag
    7      0.349D-04      0.434D-05      -115.09878306    162.997741    0.00253    0.59085   -0.39824    6    diag
    8      0.877D-05      0.114D-05      -115.09878306    162.998087    0.00253    0.59084   -0.39825    0    orth

 Final occupancy:   9

 !RHF STATE  1.1 Energy              -115.098783062751
 Nuclear energy                        40.34557676
 One-electron energy                 -236.94340337
 Two-electron energy                   81.49904355
 Virial quotient                       -1.00101591
 !RHF STATE  1.1 Dipole moment          0.00252982     0.59084041    -0.39825440
 Dipole moment /Debye                   0.00642975     1.50166816    -1.01219542

 Orbital energies:

         1.1          2.1          3.1          4.1          5.1          6.1          7.1          8.1          9.1         10.1
    -20.556342   -11.269765    -1.356927    -0.926365    -0.690870    -0.621465    -0.594394    -0.504426    -0.452104     0.054638

        11.1
      0.065011


 HOMO      9.1    -0.452104 =     -12.3024eV
 LUMO     10.1     0.054638 =       1.4868eV
 LUMO-HOMO         0.506742 =      13.7892eV


 **********************************************************************************************************************************
 DATASETS  * FILE   NREC   LENGTH (MB)   RECORD NAMES
              1      19      553.88       500      610      700      900      950      970     1000      129      960     1100   
                                          VAR    BASINP    GEOM    SYMINP    ZMAT    AOBASIS   BASIS     P2S    ABASIS      S 
                                         1400     1410     1200     1210     1080     1600     1650     1300     1700   
                                           T        V       H0       H01     AOSYM     SMH    MOLCAS    ERIS     OPER   

              2       4        3.48       700     1000      520     2100   
                                         GEOM     BASIS   MCVARS     RHF  

 PROGRAMS   *        TOTAL    HF-SCF       INT
 CPU TIMES  *        17.24      7.04      9.92
 REAL TIME  *       192.46 SEC
 DISK USED  *         2.14 GB
 **********************************************************************************************************************************


 PROGRAM * MP2 (Closed-shell)     Authors: C. Hampel, H.-J. Werner, 1991, M. Deegan, P.J. Knowles, 1992

                                   MP2-F12 implementation by H.-J. Werner, 2007

                   Density fitting integral evaluation by F.R. Manby, 2003,2007, G. Knizia, 2010


 Basis set AUG-CC-PVTZ/JKFIT generated.  Number of basis functions:   392 
 Basis set CC-PVTZ-F12/OPTRI generated.  Number of basis functions:   314 
 Basis set AUG-CC-PVTZ/MP2FIT generated. Number of basis functions:   396 

 Convergence thresholds:  THRVAR = 1.00D-08  THRDEN = 1.00D-06

 Number of core orbitals:           2 (   2 )
 Number of closed-shell orbitals:   7 (   7 )
 Number of external orbitals:     169 ( 169 )

 Molecular orbitals read from record     2100.2  Type=RHF/CANONICAL (state 1.1)

 MP2-F12 correlation treatment (H.-J. Werner, 2006)
 ==================================================

 Using MP2-F12 with ansatz 3C(FIX)

 Using projected zeroth-order Hamiltonian (+Z)

 FOCKRIB=T FOCKRIC=T FOCKRIP=T CABSP=T CABSA=T CABSK=T CABSF=T GBC=F EBC=F DMAT=T NOFIK=T NOPAO=1 SOLVE=-1  USEPAO=0
 EXCH_A= T EXCH_B= F EXCH_C= F EXCH_P= F

 Geminal basis:    OPTFULL  GEM_TYPE=SLATER  BETA=1.0  NGEM=6

 Optimizing Gaussian exponents for each gem_beta

 Geminal optimization for beta= 1.0000
 Weight function:   m=0, omega= 1.4646

 Augmented Hessian optimization of geminal fit. Trust ratio= 0.40000
 Convergence reached after   2 iterations. Final gradient= 8.66D-16, Step= 4.23D-06, Delta= 1.28D-09

 Alpha:                 0.19532     0.81920     2.85917     9.50073    35.69989   197.79328
 Coeff:                 0.27070     0.30552     0.18297     0.10986     0.06810     0.04224


 All pairs explicitly correlated. Number of r12-pairs:           28

 Excluding core orbitals from MO domains

 AO(A)-basis ORBITAL           loaded. Number of functions:     178
 RI(R)-basis CC-PVTZ-F12/OPTRI loaded. Number of functions:     314
 DF-basis AUG-CC-PVTZ/JKFIT    loaded. Number of functions:     392

 Screening thresholds:   THRAO=  1.00D-10  THRMO=  1.00D-09  THRPROD=  1.00D-09
                         THRSW=  1.00D-05  THROV=  1.00D-12  THRAOF12= 1.00D-08

 CPU time for Fock operators                      1.31 sec

 Construction of ABS:
 Smallest eigenvalue of S          4.35E-04  (threshold= 1.00E-08)
 Ratio eigmin/eigmax               5.56E-05  (threshold= 1.00E-09)
 Smallest eigenvalue of S kept     4.35E-04  (threshold= 4.35E-04, 0 functions deleted, 314 kept)

 Construction of CABS:
 Smallest eigenvalue of S          7.26E-07  (threshold= 1.00E-08)
 Ratio eigmin/eigmax               7.26E-07  (threshold= 1.00E-09)
 Smallest eigenvalue of S kept     7.26E-07  (threshold= 7.26E-07, 0 functions deleted, 314 kept)

 CPU time for CABS singles                        0.05 sec

 CABS-singles contribution of  -0.00135365 patched into reference energy.
 New reference energy        -115.10013671

 AO(A)-basis ORBITAL           loaded. Number of functions:     178
 RI(R)-basis CC-PVTZ-F12/OPTRI loaded. Number of functions:     314
 DF-basis AUG-CC-PVTZ/MP2FIT   loaded. Number of functions:     396

 Screening thresholds:   THRAO=  1.00D-10  THRMO=  1.00D-09  THRPROD=  1.00D-09
                         THRSW=  1.00D-05  THROV=  1.00D-12  THRAOF12= 1.00D-08

 CPU time for 3-index integral evaluation         3.26 sec
 CPU time for first  half transformation          0.15 sec (16460.4 MFLOP/sec)
 CPU time for second half transformation          0.01 sec ( 6217.0 MFLOP/sec)
 CPU time for sorting                             0.02 sec
 CPU time for fitting                             0.02 sec (56971.3 MFLOP/sec)
 CPU time for tilde quantities                    0.01 sec (******* MFLOP/sec)
 CPU time for assembly                            0.17 sec (72668.2 MFLOP/sec)
 CPU time for tranop_f12                          0.27 sec (58741.6 MFLOP/sec)
 CPU time for f12 integrals (total)               4.31 sec, Elapsed time:      7.65 sec
 CPU time for f12 matrices (total)                0.09 sec, Elapsed time:      0.25 sec

 Diagonal F12 approximation with fixed coefficients:  TSING= 0.500,  TTRIP= 0.250 (scaled by -1/beta)

 DF-MP2-F12 energy corrections:
 ==============================
 Approx.                                    Singlet             Triplet             Total
 DF-MP2-F12/3*C(DX,FIX)                -0.038287468459     -0.004212627106     -0.042500095565
 DF-MP2-F12/3*C(FIX)                   -0.036088635870     -0.003930883055     -0.040019518925
 DF-MP2-F12/3C(FIX)                    -0.036031344547     -0.004065857329     -0.040097201876

 DF-MP2-F12 correlation energies:
 ================================
 Approx.                                    Singlet             Triplet             Ecorr            Total Energy
 DF-MP2                                -0.291095251667     -0.152362960839     -0.443458212507   -115.543594922246
 DF-MP2-F12/3*C(DX,FIX)                -0.329382720126     -0.156575587945     -0.485958308071   -115.586095017810
 DF-MP2-F12/3*C(FIX)                   -0.327183887537     -0.156293843894     -0.483477731431   -115.583614441170
 DF-MP2-F12/3C(FIX)                    -0.327126596214     -0.156428818169     -0.483555414383   -115.583692124122

 SCS-DF-MP2 energies (F_SING= 1.20000  F_TRIP= 0.62222  F_PARALLEL= 0.33333):
 ============================================================================
 SCS-DF-MP2                            -0.444117922079   -115.544254631818
 SCS-DF-MP2-F12/3*C(DX,FIX)            -0.492684074428   -115.592820784167
 SCS-DF-MP2-F12/3*C(FIX)               -0.489870167912   -115.590006877651
 SCS-DF-MP2-F12/3C(FIX)                -0.489885402318   -115.590022112057
 Symmetry transformation completed.

 Number of N-1 electron functions:               7
 Number of N-2 electron functions:              28
 Number of singly external CSFs:              1183
 Number of doubly external CSFs:            700336
 Total number of CSFs:                      701520

 Length of J-op  integral file:             104.98 MB
 Length of K-op  integral file:             138.67 MB

 Integral transformation finished. Total CPU:   1.13 sec, npass=  1  Memory used:   2.18 MW

 ITER.      SQ.NORM     CORR.ENERGY   TOTAL ENERGY   ENERGY CHANGE     VAR   MIC
   1      1.00000000    -0.44352461  -115.54366132    -0.44352461  0.00D+00   0
   2      1.11473509    -0.44352461  -115.54366132     0.00000000 -0.11D-14   0

 Solving MP2-F12 equations

   1      1.11469878    -0.48286375  -115.58300046    -0.03933914 -0.37D-04   0
   2      1.11469878    -0.48362041  -115.58375712    -0.00075666 -0.29D-18   0
   3      1.11469878    -0.48362041  -115.58375712     0.00000000 -0.84D-19   0

 CPU TIME FOR ITERATIVE MP2:    0.08 SEC


 MP2-F12 energy corrections:
 ===========================
 Approx.                                    Singlet             Triplet             Total
 MP2-F12/3*C(DX,FIX)                   -0.038287468459     -0.004212627106     -0.042500095565
 MP2-F12/3*C(FIX)                      -0.036088635870     -0.003930883055     -0.040019518925
 MP2-F12/3C(FIX)                       -0.036028644228     -0.004067153688     -0.040095797916

 MP2-F12 correlation energies:
 =============================
 Approx.                                    Singlet             Triplet             Ecorr            Total Energy
 MP2                                   -0.291278566159     -0.152246047201     -0.443524613360   -115.543661323099
 MP2-F12/3*C(DX,FIX)                   -0.329566034618     -0.156458674307     -0.486024708924   -115.586161418663
 MP2-F12/3*C(FIX)                      -0.327367202029     -0.156176930256     -0.483544132284   -115.583680842024
 MP2-F12/3C(FIX)                       -0.327307210387     -0.156313200889     -0.483620411276   -115.583757121015

 SCS-MP2 energies (F_SING= 1.20000  F_TRIP= 0.62222  F_PARALLEL= 0.33333):
 =========================================================================
 SCS-MP2                               -0.444265153204   -115.544401862944
 SCS-MP2-F12/3*C(DX,FIX)               -0.492831305554   -115.592968015293
 SCS-MP2-F12/3*C(FIX)                  -0.490017399038   -115.590154108777
 SCS-MP2-F12/3C(FIX)                   -0.490030199684   -115.590166909423


  Reference energy                   -115.098783062752
  F12 singles correction               -0.001353646988

 F12 singles corrections added to reference energy

  New reference energy               -115.100136709739

  F12/3C(F) singlet correction         -0.036028644228
  F12/3C(F) triplet correction         -0.004067153688
  F12/3C(F) total correction           -0.040095797916
  MP2-F12/3C(F) singlet pair energy    -0.327307210387
  MP2-F12/3C(F) triplet pair energy    -0.156313200889
  MP2-F12/3C(F) correlation energy     -0.483620411276

 !MP2-F12/3C(F) total energy         -115.583757121015


 **********************************************************************************************************************************
 DATASETS  * FILE   NREC   LENGTH (MB)   RECORD NAMES
              1      20      565.06       500      610      700      900      950      970     1000      129      960     1100   
                                          VAR    BASINP    GEOM    SYMINP    ZMAT    AOBASIS   BASIS     P2S    ABASIS      S 
                                         1400     1410     1200     1210     1080     1600     1650     1300     1700     1380   
                                           T        V       H0       H01     AOSYM     SMH    MOLCAS    ERIS     OPER     JKOP   

              2       7        4.13       700     1000      520     2100     7360     7350     7000   
                                         GEOM     BASIS   MCVARS     RHF    F12ABS    EF12   

 PROGRAMS   *        TOTAL   MP2-F12    HF-SCF       INT
 CPU TIMES  *        24.50      7.25      7.04      9.92
 REAL TIME  *       205.00 SEC
 DISK USED  *         2.14 GB
 **********************************************************************************************************************************


 PROGRAM * CCSD (Closed-shell coupled cluster)     Authors: C. Hampel, H.-J. Werner, 1991, M. Deegan, P.J. Knowles, 1992

                                  CCSD-F12 implementation by  H.-J. Werner, 2007

                   Density fitting integral evaluation by F.R. Manby, 2003,2007, G. Knizia, 2010



 Convergence thresholds:  THRVAR = 1.00D-08  THRDEN = 1.00D-06

 CCSD(T)     terms to be evaluated (factor= 1.000)


 Number of core orbitals:           2 (   2 )
 Number of closed-shell orbitals:   7 (   7 )
 Number of external orbitals:     169 ( 169 )

 Molecular orbitals read from record     2100.2  Type=RHF/CANONICAL (state 1.1)

 MP2-F12 correlation treatment (H.-J. Werner, 2006)
 ==================================================

 Using MP2-F12 with ansatz 3C(FIX)

 Using projected zeroth-order Hamiltonian (+Z)

 FOCKRIB=T FOCKRIC=T FOCKRIP=T CABSP=T CABSA=T CABSK=T CABSF=T GBC=F EBC=F DMAT=T NOFIK=T NOPAO=1 SOLVE=-1  USEPAO=0
 EXCH_A= T EXCH_B= F EXCH_C= F EXCH_P= F

 Geminal basis:    OPTFULL  GEM_TYPE=SLATER  BETA=1.0  NGEM=6

 Optimizing Gaussian exponents for each gem_beta

 Geminal optimization for beta= 1.0000
 Weight function:   m=0, omega= 1.4646

 Augmented Hessian optimization of geminal fit. Trust ratio= 0.40000
 Convergence reached after   2 iterations. Final gradient= 8.66D-16, Step= 4.23D-06, Delta= 1.28D-09

 Alpha:                 0.19532     0.81920     2.85917     9.50073    35.69989   197.79328
 Coeff:                 0.27070     0.30552     0.18297     0.10986     0.06810     0.04224


 All pairs explicitly correlated. Number of r12-pairs:           28

 Excluding core orbitals from MO domains

 AO(A)-basis ORBITAL           loaded. Number of functions:     178
 RI(R)-basis CC-PVTZ-F12/OPTRI loaded. Number of functions:     314
 DF-basis AUG-CC-PVTZ/JKFIT    loaded. Number of functions:     392

 Screening thresholds:   THRAO=  1.00D-10  THRMO=  1.00D-09  THRPROD=  1.00D-09
                         THRSW=  1.00D-05  THROV=  1.00D-12  THRAOF12= 1.00D-08

 CPU time for Fock operators                      1.41 sec

 Construction of ABS:
 Smallest eigenvalue of S          4.35E-04  (threshold= 1.00E-08)
 Ratio eigmin/eigmax               5.56E-05  (threshold= 1.00E-09)
 Smallest eigenvalue of S kept     4.35E-04  (threshold= 4.35E-04, 0 functions deleted, 314 kept)

 Construction of CABS:
 Smallest eigenvalue of S          7.26E-07  (threshold= 1.00E-08)
 Ratio eigmin/eigmax               7.26E-07  (threshold= 1.00E-09)
 Smallest eigenvalue of S kept     7.26E-07  (threshold= 7.26E-07, 0 functions deleted, 314 kept)

 CPU time for CABS singles                        0.03 sec

 CABS-singles contribution of  -0.00135365 patched into reference energy.
 New reference energy        -115.10013671

 AO(A)-basis ORBITAL           loaded. Number of functions:     178
 RI(R)-basis CC-PVTZ-F12/OPTRI loaded. Number of functions:     314
 DF-basis AUG-CC-PVTZ/MP2FIT   loaded. Number of functions:     396

 Screening thresholds:   THRAO=  1.00D-10  THRMO=  1.00D-09  THRPROD=  1.00D-09
                         THRSW=  1.00D-05  THROV=  1.00D-12  THRAOF12= 1.00D-08

 CPU time for 3-index integral evaluation         3.16 sec
 CPU time for first  half transformation          0.14 sec (17636.1 MFLOP/sec)
 CPU time for second half transformation          0.01 sec ( 6217.0 MFLOP/sec)
 CPU time for fitting                             0.02 sec (56971.3 MFLOP/sec)
 CPU time for tilde quantities                    0.03 sec (50348.4 MFLOP/sec)
 CPU time for assembly                            0.15 sec (82357.3 MFLOP/sec)
 CPU time for tranop_f12                          0.20 sec (79301.1 MFLOP/sec)
 CPU time for f12 integrals (total)               4.06 sec, Elapsed time:      4.63 sec
 CPU time for f12 matrices (total)                0.09 sec, Elapsed time:      0.11 sec

 Diagonal F12 approximation with fixed coefficients:  TSING= 0.500,  TTRIP= 0.250 (scaled by -1/beta)

 DF-MP2-F12 energy corrections:
 ==============================
 Approx.                                    Singlet             Triplet             Total
 DF-MP2-F12/3*C(DX,FIX)                -0.038287468459     -0.004212627106     -0.042500095565
 DF-MP2-F12/3*C(FIX)                   -0.036088635870     -0.003930883055     -0.040019518925
 DF-MP2-F12/3C(FIX)                    -0.036031344547     -0.004065857329     -0.040097201876

 DF-MP2-F12 correlation energies:
 ================================
 Approx.                                    Singlet             Triplet             Ecorr            Total Energy
 DF-MP2                                -0.291095251667     -0.152362960839     -0.443458212507   -115.543594922246
 DF-MP2-F12/3*C(DX,FIX)                -0.329382720126     -0.156575587945     -0.485958308071   -115.586095017810
 DF-MP2-F12/3*C(FIX)                   -0.327183887537     -0.156293843894     -0.483477731431   -115.583614441170
 DF-MP2-F12/3C(FIX)                    -0.327126596214     -0.156428818169     -0.483555414383   -115.583692124122

 SCS-DF-MP2 energies (F_SING= 1.20000  F_TRIP= 0.62222  F_PARALLEL= 0.33333):
 ============================================================================
 SCS-DF-MP2                            -0.444117922079   -115.544254631818
 SCS-DF-MP2-F12/3*C(DX,FIX)            -0.492684074428   -115.592820784167
 SCS-DF-MP2-F12/3*C(FIX)               -0.489870167912   -115.590006877651
 SCS-DF-MP2-F12/3C(FIX)                -0.489885402318   -115.590022112057
 Symmetry transformation completed.

 Number of N-1 electron functions:               7
 Number of N-2 electron functions:              28
 Number of singly external CSFs:              1183
 Number of doubly external CSFs:            700336
 Total number of CSFs:                      701520

 Length of J-op  integral file:             105.23 MB
 Length of K-op  integral file:             138.67 MB
 Length of 3-ext integral record:             0.00 MB

 Memory could be reduced to 48.01 Mwords without degradation in triples

 Integral transformation finished. Total CPU:   2.89 sec, npass=  1  Memory used:  24.86 MW

 Reference energy:                   -115.10013671

 Adding F12 terms to K(Cij), methodcc=6,  factor= 1.0

 ITER.      SQ.NORM     CORR.ENERGY   TOTAL ENERGY   ENERGY CHANGE        DEN1      VAR(S)    VAR(P)  DIIS     TIME  TIME/IT
   1      1.11762259    -0.45285754  -115.55299425    -0.00933292     0.00166844  0.15D-02  0.19D-02  1  1    10.84     4.18
   2      1.12503221    -0.45321935  -115.55335606    -0.00036181    -0.00904643  0.24D-04  0.23D-03  2  2    13.24     4.94
   3      1.12776170    -0.45339676  -115.55353347    -0.00017741    -0.00186511  0.15D-04  0.13D-04  3  3    15.30     4.05
   4      1.12870895    -0.45341464  -115.55355135    -0.00001788    -0.00060018  0.86D-06  0.12D-05  4  4    17.38     3.60
   5      1.12886450    -0.45341620  -115.55355291    -0.00000155    -0.00003791  0.23D-06  0.10D-06  5  5    19.58     3.37
   6      1.12890707    -0.45341384  -115.55355055     0.00000235    -0.00000422  0.36D-07  0.96D-08  6  6    21.82     3.21
   7      1.12891820    -0.45341297  -115.55354968     0.00000087    -0.00000298  0.39D-08  0.14D-08  6  1    23.95     3.08
   8      1.12892000    -0.45341303  -115.55354974    -0.00000006     0.00000033  0.67D-09  0.20D-09  6  3    26.06     2.98

 Norm of t1 vector:      0.05000803      S-energy:     0.00000010      T1 diagnostic:  0.00945063
                                                                       D1 diagnostic:  0.02003613

 Adding energy correction from Wij-K(Fij), methodcc=6  factor= 1.0

  CCSD correlation energy              -0.453413031073
  MP2-F12 correction (uncoupled)       -0.038545510521
  C*T doubles correction               -0.001164908896
  f12b correction                       0.007098770020


 Total CPU time for triples:     31.18 sec


 RESULTS
 =======

  Reference energy                   -115.098783062752
  F12 singles correction               -0.001353646988

 F12 singles corrections added to reference energy

  New reference energy               -115.100136709739

  F12a singlet correction              -0.035791857911
  F12a triplet correction              -0.003918561506
  F12a total correction                -0.039710419417

 F12a corrections for ansatz F12/3C(FIX) added to CCSD energy

  CCSD-F12a singlet pair energy        -0.351209169766
  CCSD-F12a triplet pair energy        -0.141914384605
  CCSD-F12a correlation energy         -0.493123450490

  Triples (T) contribution             -0.016014484551
  Total correlation energy             -0.509137935041

  CCSD-F12a total energy             -115.593260160229
  CCSD[T]-F12a energy                -115.609827749016
  CCSD-T-F12a energy                 -115.609030908488
 !CCSD(T)-F12a total energy          -115.609274644781

 F12b corrections for ansatz F12/3C(FIX) added to CCSD(T)-F12a energy

  CCSD-F12b singlet pair energy        -0.344572478115
  CCSD-F12b triplet pair energy        -0.141452306237
  CCSD-F12b correlation energy         -0.486024680470

  Triples (T) contribution             -0.016014484551
  Total correlation energy             -0.502039165022

  CCSD-F12b total energy             -115.586161390210
  CCSD[T]-F12b energy                -115.602728978996
  CCSD-T-F12b energy                 -115.601932138469
 !CCSD(T)-F12b total energy          -115.602175874761

 Timing summary (sec):

 STEP                 CPU(USER)    SYS     CPU(TOT)    WALL
 Transformation          2.92      0.96      3.88      7.57
 CCSD iterations        17.50      2.29     19.79     24.02
 Triples                31.18      0.93     32.11     32.26
 MP2-F12                 5.66      0.42      6.08      6.36
 F12b energy             1.64      0.11      1.75      1.84

 Program statistics:

 Available memory in ccsd:               499999646
 Min. memory needed in ccsd:               2228017
 Max. memory used in ccsd:                 2807120
 Max. memory used in cckext:               2027429 ( 9 integral passes)



 **********************************************************************************************************************************
 DATASETS  * FILE   NREC   LENGTH (MB)   RECORD NAMES
              1      20      701.01       500      610      700      900      950      970     1000      129      960     1100   
                                          VAR    BASINP    GEOM    SYMINP    ZMAT    AOBASIS   BASIS     P2S    ABASIS      S 
                                         1400     1410     1200     1210     1080     1600     1650     1300     1700     1380   
                                           T        V       H0       H01     AOSYM     SMH    MOLCAS    ERIS     OPER     JKOP   

              2       7        4.13       700     1000      520     2100     7360     7350     7000   
                                         GEOM     BASIS   MCVARS     RHF    F12ABS    EF12   

 PROGRAMS   *        TOTAL   CCSD(T)   MP2-F12    HF-SCF       INT
 CPU TIMES  *        83.45     58.95      7.25      7.04      9.92
 REAL TIME  *       277.27 SEC
 DISK USED  *         2.14 GB
 **********************************************************************************************************************************
 SETTING XXX            =    "MMM"
 SETTING POINT          =        86.00000000                                  

 *** ### CH3OH


 XXX       RCO          ROH          RCH1         RCH2         RCH3           ACOH           AOCH1          AOCH2          AOCH3         AHH1           AHH2           AHH3            ENERGY       POINT
 "MMM"   1.42077677   0.96013932   1.09171752   1.08440070   1.09171752   108.12930637   111.65221523   107.18733878   111.65221523   61.43364279   179.89793793   298.66841928   -115.60927464   86.0000
                                                  

 CCSD(T)-F12/cc-pVTZ-F12 energy=   -115.602175874761

     CCSD(T)-F12         MP2-F12          HF-SCF
   -115.60217587   -115.58375712   -115.09878306
 **********************************************************************************************************************************
 Molpro calculation terminated
