
 Primary working directories    : /tmpdir/job/2955632.undefined/molpro.pw56ufAYWG
 Secondary working directories  : /tmpdir/job/2955632.undefined/molpro.pw56ufAYWG
 Wavefunction directory         : /home/zcaposm/wfu/
 Main file repository           : /tmpdir/job/2955632.undefined/molpro.pw56ufAYWG/

 id        : uclcc

 Nodes                         nprocs
 node-d00a-211.myriad.ucl.ac.uk    1

 Using customized tuning parameters: mindgm=1; mindgv=20; mindgc=4; mindgr=1; noblas=0; minvec=7
 default implementation of scratch files=df  


 Variables initialized (945), CPU time= 0.00 sec
 ***,Methanol Ground State Energy with CCSD(T)-F12 and cc-pVTZ-F12
 memory,500,m;
 
 geometry={angstrom
 c
 o , 1, rco
 h , 2, roh, 1, acoh
 h1, 1, rch1, 2, aoch1  3  ahh1
 h2, 1, rch2, 2, aoch2, 3, ahh2
 h3, 1, rch3, 2, aoch3, 3, ahh3
 }
 
                                                ! Specify the initial values of the internal coordinates (in Angstroms and degrees)
 
 rco= 1.42077677
 roh= 0.96013932
 rch1= 1.091717515605
 rch2= 1.08440070258
 rch3= 1.091717515605
 acoh= 108.12930637
 aoch1= 111.1522152299
 aoch2= 107.18733878260001
 aoch3= 111.6522152299
 ahh1=61.43364279
 ahh2=180.0
 ahh3=298.56635721
 
                                                                                 ! Use the cc-pVTZ-F12 basis set
 basis=cc-pVTZ-F12
 
 hf
 
                                                                                 ! Use explicitly correlated F12 methods
                                                                            ! First, MP2-F12 (useful for initial electronic energy)
 {mp2-f12}
 
                                                                        ! If desired, perform CCSD(T)-F12 for more accurate results
 {ccsd(t)-f12}
 
                                                                                 ! Output the energy
 xxx = "mmm"
 point = 65
 text ### CH3OH
 table,xxx,rco,roh,rch1,rch2,rch3,acoh,aoch1,aoch2,aoch3,ahh1,ahh2,ahh3,energy,point
 DIGITS, 0, 8, 8, 8, 8, 8, 8, 8, 8, 8,  8,  8,  8, 8, 4
 save,CH3OH_MEP_MP2_65.dat,new
 
 Commands  initialized (802), CPU time= 0.00 sec, 659 directives.
 Default parameters read. Elapsed time= 0.11 sec

 Checking input...
 Passed
1


                                         ***  PROGRAM SYSTEM MOLPRO  ***
                                       Copyright, TTI GmbH Stuttgart, 2015
                                    Version 2020.1 linked Oct  6 2020 12:04:11


 **********************************************************************************************************************************
 LABEL *   Methanol Ground State Energy with CCSD(T)-F12 and cc-pVTZ-F12                 
  64 bit serial version                                                                  DATE: 08-Oct-24          TIME: 17:30:36  
 **********************************************************************************************************************************

 SHA1:             8c27446f6450a7499e38f603e13c65f775101d37
 **********************************************************************************************************************************

 Memory per process:       500 MW
 Total memory per node:    500 MW

 GA preallocation disabled
 GA check disabled

 Variable memory set to 500.0 MW

 SETTING RCO            =         1.42077677                                  
 SETTING ROH            =         0.96013932                                  
 SETTING RCH1           =         1.09171752                                  
 SETTING RCH2           =         1.08440070                                  
 SETTING RCH3           =         1.09171752                                  
 SETTING ACOH           =       108.12930637                                  
 SETTING AOCH1          =       111.15221523                                  
 SETTING AOCH2          =       107.18733878                                  
 SETTING AOCH3          =       111.65221523                                  
 SETTING AHH1           =        61.43364279                                  
 SETTING AHH2           =       180.00000000                                  
 SETTING AHH3           =       298.56635721                                  
 SETTING BASIS          =    CC-PVTZ-F12


 Recomputing integrals since basis changed


 Using spherical harmonics

 Library entry C      S cc-pVTZ-F12          selected for orbital group  1
 Library entry C      P cc-pVTZ-F12          selected for orbital group  1
 Library entry C      D cc-pVTZ-F12          selected for orbital group  1
 Library entry C      F cc-pVTZ-F12          selected for orbital group  1
 Library entry O      S cc-pVTZ-F12          selected for orbital group  2
 Library entry O      P cc-pVTZ-F12          selected for orbital group  2
 Library entry O      D cc-pVTZ-F12          selected for orbital group  2
 Library entry O      F cc-pVTZ-F12          selected for orbital group  2
 Library entry H      S cc-pVTZ-F12          selected for orbital group  3
 Library entry H      P cc-pVTZ-F12          selected for orbital group  3
 Library entry H      D cc-pVTZ-F12          selected for orbital group  3


 PROGRAM * SEWARD (Integral evaluation for generally contracted gaussian basis sets)     Author: Roland Lindh, 1990

 Geometry written to block  1 of record 700

 Orientation using atomic masses  
 Molecule type: Asymmetric top
 Rotational constants:      23.9796921     24.8256544    128.5612430 GHz  (calculated with average atomic masses)

 Point group  C1  



 ATOMIC COORDINATES

 NR  ATOM    CHARGE       X              Y              Z

   1  C       6.00    0.000099397    0.025400106   -1.377118639
   2  O       8.00   -0.000083634   -0.122390336    1.303689651
   3  H       1.00   -0.006516796    1.568233823    1.962322492
   4  H1      1.00    1.686549756    0.991262786   -2.069330924
   5  H2      1.00    0.007400849   -1.895995855   -2.089500728
   6  H3      1.00   -1.687290700    0.976568374   -2.087158753

 Bond lengths in Bohr (Angstrom)

 1-2  2.684878979  1-4  2.063047110  1-5  2.049220337  1-6  2.063047110  2-3  1.814400356
     ( 1.420776770)     ( 1.091717516)     ( 1.084400703)     ( 1.091717516)     ( 0.960139320)

 Bond angles

  1-2-3  108.12930637   2-1-4  111.15221523   2-1-5  107.18733878   2-1-6  111.65221523

  4-1-5  108.62755684   4-1-6  109.71102067   5-1-6  108.39459424

 NUCLEAR CHARGE:                   18
 NUMBER OF PRIMITIVE AOS:         228
 NUMBER OF SYMMETRY AOS:          206
 NUMBER OF CONTRACTIONS:          178   (  178A   )
 NUMBER OF INNER CORE ORBITALS:     0   (    0A   )
 NUMBER OF OUTER CORE ORBITALS:     2   (    2A   )
 NUMBER OF VALENCE ORBITALS:       12   (   12A   )


 NUCLEAR REPULSION ENERGY   40.35117067

 Eigenvalues of metric

         1 0.880E-04 0.184E-03 0.309E-03 0.323E-03 0.460E-03 0.493E-03 0.560E-03 0.570E-03


 Contracted 2-electron integrals neglected if value below      1.0D-11
 AO integral compression algorithm  1   Integral accuracy      1.0D-11

     602.669 MB (compressed) written to integral file ( 50.6%)


 NUMBER OF SORTED TWO-ELECTRON INTEGRALS:  126906346.     BUFFER LENGTH:  32768
 NUMBER OF SEGMENTS:   8  SEGMENT LENGTH:   15999503      RECORD LENGTH: 524288

 Memory used in sort:      16.56 MW

 SORT1 READ   149034713. AND WROTE   124699445. INTEGRALS IN    360 RECORDS. CPU TIME:     4.14 SEC, REAL TIME:   115.23 SEC
 SORT2 READ   124699445. AND WROTE   126906346. INTEGRALS IN   2299 RECORDS. CPU TIME:     2.16 SEC, REAL TIME:   257.09 SEC

 FILE SIZES:   FILE 1:   633.9 MBYTE,  FILE 4:  1510.0 MBYTE,   TOTAL:   2143.9 MBYTE

 OPERATOR DM      FOR CENTER  0  COORDINATES:    0.000000    0.000000    0.000000


 **********************************************************************************************************************************
 DATASETS  * FILE   NREC   LENGTH (MB)   RECORD NAMES
              1      19      556.77       500      610      700      900      950      970     1000      129      960     1100   
                                          VAR    BASINP    GEOM    SYMINP    ZMAT    AOBASIS   BASIS     P2S    ABASIS      S 
                                         1400     1410     1200     1210     1080     1600     1650     1300     1700   
                                           T        V       H0       H01     AOSYM     SMH    MOLCAS    ERIS     OPER   

 PROGRAMS   *        TOTAL       INT
 CPU TIMES  *        10.95     10.84
 REAL TIME  *       418.81 SEC
 DISK USED  *         2.14 GB
 **********************************************************************************************************************************


 PROGRAM * RHF-SCF (CLOSED SHELL)       Authors: W. Meyer, H.-J. Werner


 NUMBER OF ELECTRONS:       9+    9-    SPACE SYMMETRY=1    SPIN SYMMETRY: Singlet 
 CONVERGENCE THRESHOLDS:    1.00E-05 (Density)    1.00E-07 (Energy)
 MAX. NUMBER OF ITERATIONS:       60
 INTERPOLATION TYPE:            DIIS
 INTERPOLATION STEPS:              2 (START)      1 (STEP)
 LEVEL SHIFTS:                  0.00 (CLOSED)  0.00 (OPEN) 



 Orbital guess generated from atomic densities. Full valence occupancy:   14

 Molecular orbital dump at record        2100.2

 Initial occupancy:   9

 ITERATION    DDIFF          GRAD             ENERGY        2-EL.EN.            DIPOLE MOMENTS         DIIS   ORB.
    1      0.000D+00      0.000D+00      -115.06232350    164.501464   -0.00406    0.90386   -0.47770    0    start
    2      0.000D+00      0.507D-02      -115.09070070    161.914116   -0.00181    0.49627   -0.30358    1    diag
    3      0.481D-02      0.277D-02      -115.09820967    163.179271   -0.00243    0.59957   -0.39691    2    diag
    4      0.163D-02      0.546D-03      -115.09874184    163.002936   -0.00241    0.59450   -0.39245    3    diag
    5      0.436D-03      0.110D-03      -115.09877622    163.014412   -0.00240    0.59051   -0.39731    4    diag
    6      0.121D-03      0.205D-04      -115.09877778    163.012179   -0.00240    0.59066   -0.39811    5    diag
    7      0.350D-04      0.435D-05      -115.09877786    163.011804   -0.00240    0.59047   -0.39839    6    diag
    8      0.879D-05      0.114D-05      -115.09877786    163.012146   -0.00240    0.59047   -0.39840    0    orth

 Final occupancy:   9

 !RHF STATE  1.1 Energy              -115.098777861285
 Nuclear energy                        40.35117067
 One-electron energy                 -236.95602155
 Two-electron energy                   81.50607302
 Virial quotient                       -1.00100763
 !RHF STATE  1.1 Dipole moment         -0.00239737     0.59046823    -0.39840023
 Dipole moment /Debye                  -0.00609312     1.50072225    -1.01256606

 Orbital energies:

         1.1          2.1          3.1          4.1          5.1          6.1          7.1          8.1          9.1         10.1
    -20.556045   -11.269765    -1.356820    -0.926216    -0.690512    -0.622000    -0.594383    -0.504128    -0.452069     0.054684

        11.1
      0.065034


 HOMO      9.1    -0.452069 =     -12.3014eV
 LUMO     10.1     0.054684 =       1.4880eV
 LUMO-HOMO         0.506753 =      13.7895eV


 **********************************************************************************************************************************
 DATASETS  * FILE   NREC   LENGTH (MB)   RECORD NAMES
              1      19      556.77       500      610      700      900      950      970     1000      129      960     1100   
                                          VAR    BASINP    GEOM    SYMINP    ZMAT    AOBASIS   BASIS     P2S    ABASIS      S 
                                         1400     1410     1200     1210     1080     1600     1650     1300     1700   
                                           T        V       H0       H01     AOSYM     SMH    MOLCAS    ERIS     OPER   

              2       4        3.48       700     1000      520     2100   
                                         GEOM     BASIS   MCVARS     RHF  

 PROGRAMS   *        TOTAL    HF-SCF       INT
 CPU TIMES  *        19.71      8.75     10.84
 REAL TIME  *       466.51 SEC
 DISK USED  *         2.14 GB
 **********************************************************************************************************************************


 PROGRAM * MP2 (Closed-shell)     Authors: C. Hampel, H.-J. Werner, 1991, M. Deegan, P.J. Knowles, 1992

                                   MP2-F12 implementation by H.-J. Werner, 2007

                   Density fitting integral evaluation by F.R. Manby, 2003,2007, G. Knizia, 2010


 Basis set AUG-CC-PVTZ/JKFIT generated.  Number of basis functions:   392 
 Basis set CC-PVTZ-F12/OPTRI generated.  Number of basis functions:   314 
 Basis set AUG-CC-PVTZ/MP2FIT generated. Number of basis functions:   396 

 Convergence thresholds:  THRVAR = 1.00D-08  THRDEN = 1.00D-06

 Number of core orbitals:           2 (   2 )
 Number of closed-shell orbitals:   7 (   7 )
 Number of external orbitals:     169 ( 169 )

 Molecular orbitals read from record     2100.2  Type=RHF/CANONICAL (state 1.1)

 MP2-F12 correlation treatment (H.-J. Werner, 2006)
 ==================================================

 Using MP2-F12 with ansatz 3C(FIX)

 Using projected zeroth-order Hamiltonian (+Z)

 FOCKRIB=T FOCKRIC=T FOCKRIP=T CABSP=T CABSA=T CABSK=T CABSF=T GBC=F EBC=F DMAT=T NOFIK=T NOPAO=1 SOLVE=-1  USEPAO=0
 EXCH_A= T EXCH_B= F EXCH_C= F EXCH_P= F

 Geminal basis:    OPTFULL  GEM_TYPE=SLATER  BETA=1.0  NGEM=6

 Optimizing Gaussian exponents for each gem_beta

 Geminal optimization for beta= 1.0000
 Weight function:   m=0, omega= 1.4646

 Augmented Hessian optimization of geminal fit. Trust ratio= 0.40000
 Convergence reached after   2 iterations. Final gradient= 8.66D-16, Step= 4.23D-06, Delta= 1.28D-09

 Alpha:                 0.19532     0.81920     2.85917     9.50073    35.69989   197.79328
 Coeff:                 0.27070     0.30552     0.18297     0.10986     0.06810     0.04224


 All pairs explicitly correlated. Number of r12-pairs:           28

 Excluding core orbitals from MO domains

 AO(A)-basis ORBITAL           loaded. Number of functions:     178
 RI(R)-basis CC-PVTZ-F12/OPTRI loaded. Number of functions:     314
 DF-basis AUG-CC-PVTZ/JKFIT    loaded. Number of functions:     392

 Screening thresholds:   THRAO=  1.00D-10  THRMO=  1.00D-09  THRPROD=  1.00D-09
                         THRSW=  1.00D-05  THROV=  1.00D-12  THRAOF12= 1.00D-08

 CPU time for Fock operators                      1.70 sec

 Construction of ABS:
 Smallest eigenvalue of S          4.35E-04  (threshold= 1.00E-08)
 Ratio eigmin/eigmax               5.56E-05  (threshold= 1.00E-09)
 Smallest eigenvalue of S kept     4.35E-04  (threshold= 4.35E-04, 0 functions deleted, 314 kept)

 Construction of CABS:
 Smallest eigenvalue of S          7.25E-07  (threshold= 1.00E-08)
 Ratio eigmin/eigmax               7.25E-07  (threshold= 1.00E-09)
 Smallest eigenvalue of S kept     7.25E-07  (threshold= 7.25E-07, 0 functions deleted, 314 kept)

 CPU time for CABS singles                        0.04 sec

 CABS-singles contribution of  -0.00135344 patched into reference energy.
 New reference energy        -115.10013130

 AO(A)-basis ORBITAL           loaded. Number of functions:     178
 RI(R)-basis CC-PVTZ-F12/OPTRI loaded. Number of functions:     314
 DF-basis AUG-CC-PVTZ/MP2FIT   loaded. Number of functions:     396

 Screening thresholds:   THRAO=  1.00D-10  THRMO=  1.00D-09  THRPROD=  1.00D-09
                         THRSW=  1.00D-05  THROV=  1.00D-12  THRAOF12= 1.00D-08

 CPU time for 3-index integral evaluation         3.36 sec
 CPU time for first  half transformation          0.32 sec ( 7715.8 MFLOP/sec)
 CPU time for second half transformation          0.02 sec ( 3108.5 MFLOP/sec)
 CPU time for sorting                             0.02 sec
 CPU time for fitting                             0.02 sec (56971.3 MFLOP/sec)
 CPU time for tilde quantities                    0.04 sec (37761.3 MFLOP/sec)
 CPU time for assembly                            0.20 sec (61768.0 MFLOP/sec)
 CPU time for tranop_f12                          0.29 sec (54690.4 MFLOP/sec)
 CPU time for f12 integrals (total)               4.81 sec, Elapsed time:      7.85 sec
 CPU time for f12 matrices (total)                0.11 sec, Elapsed time:      0.36 sec

 Diagonal F12 approximation with fixed coefficients:  TSING= 0.500,  TTRIP= 0.250 (scaled by -1/beta)

 DF-MP2-F12 energy corrections:
 ==============================
 Approx.                                    Singlet             Triplet             Total
 DF-MP2-F12/3*C(DX,FIX)                -0.038289587396     -0.004213237286     -0.042502824682
 DF-MP2-F12/3*C(FIX)                   -0.036090261100     -0.003931467485     -0.040021728585
 DF-MP2-F12/3C(FIX)                    -0.036033114479     -0.004066492774     -0.040099607253

 DF-MP2-F12 correlation energies:
 ================================
 Approx.                                    Singlet             Triplet             Ecorr            Total Energy
 DF-MP2                                -0.291089685203     -0.152352012786     -0.443441697989   -115.543572999869
 DF-MP2-F12/3*C(DX,FIX)                -0.329379272599     -0.156565250072     -0.485944522671   -115.586075824551
 DF-MP2-F12/3*C(FIX)                   -0.327179946303     -0.156283480271     -0.483463426574   -115.583594728454
 DF-MP2-F12/3C(FIX)                    -0.327122799682     -0.156418505560     -0.483541305242   -115.583672607123

 SCS-DF-MP2 energies (F_SING= 1.20000  F_TRIP= 0.62222  F_PARALLEL= 0.33333):
 ============================================================================
 SCS-DF-MP2                            -0.444104430199   -115.544235732079
 SCS-DF-MP2-F12/3*C(DX,FIX)            -0.492673504941   -115.592804806821
 SCS-DF-MP2-F12/3*C(FIX)               -0.489858989954   -115.589990291835
 SCS-DF-MP2-F12/3C(FIX)                -0.489874429745   -115.590005731625
 Symmetry transformation completed.

 Number of N-1 electron functions:               7
 Number of N-2 electron functions:              28
 Number of singly external CSFs:              1183
 Number of doubly external CSFs:            700336
 Total number of CSFs:                      701520

 Length of J-op  integral file:             104.98 MB
 Length of K-op  integral file:             138.67 MB

 Integral transformation finished. Total CPU:   1.33 sec, npass=  1  Memory used:   2.18 MW

 ITER.      SQ.NORM     CORR.ENERGY   TOTAL ENERGY   ENERGY CHANGE     VAR   MIC
   1      1.00000000    -0.44350813  -115.54363943    -0.44350813  0.00D+00   0
   2      1.11471970    -0.44350813  -115.54363943     0.00000000 -0.14D-14   0

 Solving MP2-F12 equations

   1      1.11468346    -0.48284947  -115.58298078    -0.03934135 -0.37D-04   0
   2      1.11468346    -0.48360633  -115.58373763    -0.00075685  0.22D-18   0
   3      1.11468346    -0.48360633  -115.58373763     0.00000000 -0.69D-19   0

 CPU TIME FOR ITERATIVE MP2:    0.11 SEC


 MP2-F12 energy corrections:
 ===========================
 Approx.                                    Singlet             Triplet             Total
 MP2-F12/3*C(DX,FIX)                   -0.038289587396     -0.004213237286     -0.042502824682
 MP2-F12/3*C(FIX)                      -0.036090261100     -0.003931467485     -0.040021728585
 MP2-F12/3C(FIX)                       -0.036030410532     -0.004067788320     -0.040098198851

 MP2-F12 correlation energies:
 =============================
 Approx.                                    Singlet             Triplet             Ecorr            Total Energy
 MP2                                   -0.291273019100     -0.152235109287     -0.443508128387   -115.543639430267
 MP2-F12/3*C(DX,FIX)                   -0.329562606496     -0.156448346573     -0.486010953068   -115.586142254949
 MP2-F12/3*C(FIX)                      -0.327363280200     -0.156166576772     -0.483529856972   -115.583661158852
 MP2-F12/3C(FIX)                       -0.327303429631     -0.156302897607     -0.483606327238   -115.583737629118

 SCS-MP2 energies (F_SING= 1.20000  F_TRIP= 0.62222  F_PARALLEL= 0.33333):
 =========================================================================
 SCS-MP2                               -0.444251690920   -115.544382992801
 SCS-MP2-F12/3*C(DX,FIX)               -0.492820765662   -115.592952067543
 SCS-MP2-F12/3*C(FIX)                  -0.490006250676   -115.590137552556
 SCS-MP2-F12/3C(FIX)                   -0.490019251846   -115.590150553726


  Reference energy                   -115.098777861285
  F12 singles correction               -0.001353440595

 F12 singles corrections added to reference energy

  New reference energy               -115.100131301880

  F12/3C(F) singlet correction         -0.036030410532
  F12/3C(F) triplet correction         -0.004067788320
  F12/3C(F) total correction           -0.040098198851
  MP2-F12/3C(F) singlet pair energy    -0.327303429631
  MP2-F12/3C(F) triplet pair energy    -0.156302897607
  MP2-F12/3C(F) correlation energy     -0.483606327238

 !MP2-F12/3C(F) total energy         -115.583737629118


 **********************************************************************************************************************************
 DATASETS  * FILE   NREC   LENGTH (MB)   RECORD NAMES
              1      20      567.95       500      610      700      900      950      970     1000      129      960     1100   
                                          VAR    BASINP    GEOM    SYMINP    ZMAT    AOBASIS   BASIS     P2S    ABASIS      S 
                                         1400     1410     1200     1210     1080     1600     1650     1300     1700     1380   
                                           T        V       H0       H01     AOSYM     SMH    MOLCAS    ERIS     OPER     JKOP   

              2       7        4.13       700     1000      520     2100     7360     7350     7000   
                                         GEOM     BASIS   MCVARS     RHF    F12ABS    EF12   

 PROGRAMS   *        TOTAL   MP2-F12    HF-SCF       INT
 CPU TIMES  *        28.15      8.44      8.75     10.84
 REAL TIME  *       486.85 SEC
 DISK USED  *         2.14 GB
 **********************************************************************************************************************************


 PROGRAM * CCSD (Closed-shell coupled cluster)     Authors: C. Hampel, H.-J. Werner, 1991, M. Deegan, P.J. Knowles, 1992

                                  CCSD-F12 implementation by  H.-J. Werner, 2007

                   Density fitting integral evaluation by F.R. Manby, 2003,2007, G. Knizia, 2010



 Convergence thresholds:  THRVAR = 1.00D-08  THRDEN = 1.00D-06

 CCSD(T)     terms to be evaluated (factor= 1.000)


 Number of core orbitals:           2 (   2 )
 Number of closed-shell orbitals:   7 (   7 )
 Number of external orbitals:     169 ( 169 )

 Molecular orbitals read from record     2100.2  Type=RHF/CANONICAL (state 1.1)

 MP2-F12 correlation treatment (H.-J. Werner, 2006)
 ==================================================

 Using MP2-F12 with ansatz 3C(FIX)

 Using projected zeroth-order Hamiltonian (+Z)

 FOCKRIB=T FOCKRIC=T FOCKRIP=T CABSP=T CABSA=T CABSK=T CABSF=T GBC=F EBC=F DMAT=T NOFIK=T NOPAO=1 SOLVE=-1  USEPAO=0
 EXCH_A= T EXCH_B= F EXCH_C= F EXCH_P= F

 Geminal basis:    OPTFULL  GEM_TYPE=SLATER  BETA=1.0  NGEM=6

 Optimizing Gaussian exponents for each gem_beta

 Geminal optimization for beta= 1.0000
 Weight function:   m=0, omega= 1.4646

 Augmented Hessian optimization of geminal fit. Trust ratio= 0.40000
 Convergence reached after   2 iterations. Final gradient= 8.66D-16, Step= 4.23D-06, Delta= 1.28D-09

 Alpha:                 0.19532     0.81920     2.85917     9.50073    35.69989   197.79328
 Coeff:                 0.27070     0.30552     0.18297     0.10986     0.06810     0.04224


 All pairs explicitly correlated. Number of r12-pairs:           28

 Excluding core orbitals from MO domains

 AO(A)-basis ORBITAL           loaded. Number of functions:     178
 RI(R)-basis CC-PVTZ-F12/OPTRI loaded. Number of functions:     314
 DF-basis AUG-CC-PVTZ/JKFIT    loaded. Number of functions:     392

 Screening thresholds:   THRAO=  1.00D-10  THRMO=  1.00D-09  THRPROD=  1.00D-09
                         THRSW=  1.00D-05  THROV=  1.00D-12  THRAOF12= 1.00D-08

 CPU time for Fock operators                      1.52 sec

 Construction of ABS:
 Smallest eigenvalue of S          4.35E-04  (threshold= 1.00E-08)
 Ratio eigmin/eigmax               5.56E-05  (threshold= 1.00E-09)
 Smallest eigenvalue of S kept     4.35E-04  (threshold= 4.35E-04, 0 functions deleted, 314 kept)

 Construction of CABS:
 Smallest eigenvalue of S          7.25E-07  (threshold= 1.00E-08)
 Ratio eigmin/eigmax               7.25E-07  (threshold= 1.00E-09)
 Smallest eigenvalue of S kept     7.25E-07  (threshold= 7.25E-07, 0 functions deleted, 314 kept)

 CPU time for CABS singles                        0.04 sec

 CABS-singles contribution of  -0.00135344 patched into reference energy.
 New reference energy        -115.10013130

 AO(A)-basis ORBITAL           loaded. Number of functions:     178
 RI(R)-basis CC-PVTZ-F12/OPTRI loaded. Number of functions:     314
 DF-basis AUG-CC-PVTZ/MP2FIT   loaded. Number of functions:     396

 Screening thresholds:   THRAO=  1.00D-10  THRMO=  1.00D-09  THRPROD=  1.00D-09
                         THRSW=  1.00D-05  THROV=  1.00D-12  THRAOF12= 1.00D-08

 CPU time for 3-index integral evaluation         3.41 sec
 CPU time for first  half transformation          0.30 sec ( 8230.2 MFLOP/sec)
 CPU time for second half transformation          0.01 sec ( 6217.0 MFLOP/sec)
 CPU time for sorting                             0.02 sec
 CPU time for fitting                             0.01 sec (******* MFLOP/sec)
 CPU time for tilde quantities                    0.03 sec (50348.4 MFLOP/sec)
 CPU time for assembly                            0.16 sec (77210.0 MFLOP/sec)
 CPU time for tranop_f12                          0.23 sec (68957.5 MFLOP/sec)
 CPU time for f12 integrals (total)               4.70 sec, Elapsed time:      6.22 sec
 CPU time for f12 matrices (total)                0.08 sec, Elapsed time:      0.11 sec

 Diagonal F12 approximation with fixed coefficients:  TSING= 0.500,  TTRIP= 0.250 (scaled by -1/beta)

 DF-MP2-F12 energy corrections:
 ==============================
 Approx.                                    Singlet             Triplet             Total
 DF-MP2-F12/3*C(DX,FIX)                -0.038289587396     -0.004213237286     -0.042502824682
 DF-MP2-F12/3*C(FIX)                   -0.036090261100     -0.003931467485     -0.040021728585
 DF-MP2-F12/3C(FIX)                    -0.036033114479     -0.004066492774     -0.040099607253

 DF-MP2-F12 correlation energies:
 ================================
 Approx.                                    Singlet             Triplet             Ecorr            Total Energy
 DF-MP2                                -0.291089685203     -0.152352012786     -0.443441697989   -115.543572999869
 DF-MP2-F12/3*C(DX,FIX)                -0.329379272599     -0.156565250072     -0.485944522671   -115.586075824551
 DF-MP2-F12/3*C(FIX)                   -0.327179946303     -0.156283480271     -0.483463426574   -115.583594728454
 DF-MP2-F12/3C(FIX)                    -0.327122799682     -0.156418505560     -0.483541305242   -115.583672607123

 SCS-DF-MP2 energies (F_SING= 1.20000  F_TRIP= 0.62222  F_PARALLEL= 0.33333):
 ============================================================================
 SCS-DF-MP2                            -0.444104430199   -115.544235732079
 SCS-DF-MP2-F12/3*C(DX,FIX)            -0.492673504941   -115.592804806821
 SCS-DF-MP2-F12/3*C(FIX)               -0.489858989954   -115.589990291835
 SCS-DF-MP2-F12/3C(FIX)                -0.489874429745   -115.590005731625
 Symmetry transformation completed.

 Number of N-1 electron functions:               7
 Number of N-2 electron functions:              28
 Number of singly external CSFs:              1183
 Number of doubly external CSFs:            700336
 Total number of CSFs:                      701520

 Length of J-op  integral file:             105.23 MB
 Length of K-op  integral file:             138.67 MB
 Length of 3-ext integral record:             0.00 MB

 Memory could be reduced to 48.01 Mwords without degradation in triples

 Integral transformation finished. Total CPU:   3.16 sec, npass=  1  Memory used:  24.86 MW

 Reference energy:                   -115.10013130

 Adding F12 terms to K(Cij), methodcc=6,  factor= 1.0

 ITER.      SQ.NORM     CORR.ENERGY   TOTAL ENERGY   ENERGY CHANGE        DEN1      VAR(S)    VAR(P)  DIIS     TIME  TIME/IT
   1      1.11760948    -0.45284444  -115.55297574    -0.00933631     0.00166458  0.15D-02  0.19D-02  1  1    13.36    19.00
   2      1.12501921    -0.45320656  -115.55333786    -0.00036212    -0.00904635  0.24D-04  0.23D-03  2  2    16.52    15.39
   3      1.12774857    -0.45338399  -115.55351529    -0.00017743    -0.00186510  0.15D-04  0.13D-04  3  3    19.44    13.24
   4      1.12869578    -0.45340188  -115.55353318    -0.00001789    -0.00060012  0.86D-06  0.12D-05  4  4    22.49    12.08
   5      1.12885142    -0.45340343  -115.55353474    -0.00000155    -0.00003791  0.23D-06  0.10D-06  5  5    25.39    11.70
   6      1.12889405    -0.45340108  -115.55353238     0.00000236    -0.00000423  0.36D-07  0.96D-08  6  6    28.75    11.82
   7      1.12890521    -0.45340020  -115.55353150     0.00000088    -0.00000299  0.40D-08  0.14D-08  6  1    32.30    11.92
   8      1.12890701    -0.45340026  -115.55353156    -0.00000006     0.00000034  0.68D-09  0.20D-09  6  3    35.26    11.08

 Norm of t1 vector:      0.05000823      S-energy:     0.00000010      T1 diagnostic:  0.00945067
                                                                       D1 diagnostic:  0.02001998

 Adding energy correction from Wij-K(Fij), methodcc=6  factor= 1.0

  CCSD correlation energy              -0.453400261023
  MP2-F12 correction (uncoupled)       -0.038547327639
  C*T doubles correction               -0.001165298468
  f12b correction                       0.007098998485


 Total CPU time for triples:     36.24 sec


 RESULTS
 =======

  Reference energy                   -115.098777861285
  F12 singles correction               -0.001353440595

 F12 singles corrections added to reference energy

  New reference energy               -115.100131301880

  F12a singlet correction              -0.035793480678
  F12a triplet correction              -0.003919145428
  F12a total correction                -0.039712626107

 F12a corrections for ansatz F12/3C(FIX) added to CCSD energy

  CCSD-F12a singlet pair energy        -0.351206343680
  CCSD-F12a triplet pair energy        -0.141906643529
  CCSD-F12a correlation energy         -0.493112887129

  Triples (T) contribution             -0.016011927353
  Total correlation energy             -0.509124814482

  CCSD-F12a total energy             -115.593244189010
  CCSD[T]-F12a energy                -115.609809190869
  CCSD-T-F12a energy                 -115.609012382478
 !CCSD(T)-F12a total energy          -115.609256116362

 F12b corrections for ansatz F12/3C(FIX) added to CCSD(T)-F12a energy

  CCSD-F12b singlet pair energy        -0.344569461567
  CCSD-F12b triplet pair energy        -0.141444527156
  CCSD-F12b correlation energy         -0.486013888644

  Triples (T) contribution             -0.016011927353
  Total correlation energy             -0.502025815997

  CCSD-F12b total energy             -115.586145190524
  CCSD[T]-F12b energy                -115.602710192384
  CCSD-T-F12b energy                 -115.601913383992
 !CCSD(T)-F12b total energy          -115.602157117877

 Timing summary (sec):

 STEP                 CPU(USER)    SYS     CPU(TOT)    WALL
 Transformation          3.22      1.61      4.83     13.74
 CCSD iterations        25.61      8.79     34.40     88.87
 Triples                36.24      0.86     37.10     37.20
 MP2-F12                 6.44      0.57      7.01      8.06
 F12b energy             2.32      0.13      2.45      2.53

 Program statistics:

 Available memory in ccsd:               499999646
 Min. memory needed in ccsd:               2228017
 Max. memory used in ccsd:                 2807120
 Max. memory used in cckext:               2027429 ( 9 integral passes)



 **********************************************************************************************************************************
 DATASETS  * FILE   NREC   LENGTH (MB)   RECORD NAMES
              1      20      703.90       500      610      700      900      950      970     1000      129      960     1100   
                                          VAR    BASINP    GEOM    SYMINP    ZMAT    AOBASIS   BASIS     P2S    ABASIS      S 
                                         1400     1410     1200     1210     1080     1600     1650     1300     1700     1380   
                                           T        V       H0       H01     AOSYM     SMH    MOLCAS    ERIS     OPER     JKOP   

              2       7        4.13       700     1000      520     2100     7360     7350     7000   
                                         GEOM     BASIS   MCVARS     RHF    F12ABS    EF12   

 PROGRAMS   *        TOTAL   CCSD(T)   MP2-F12    HF-SCF       INT
 CPU TIMES  *       102.02     73.87      8.44      8.75     10.84
 REAL TIME  *       637.36 SEC
 DISK USED  *         2.14 GB
 **********************************************************************************************************************************
 SETTING XXX            =    "MMM"
 SETTING POINT          =        65.00000000                                  

 *** ### CH3OH


 XXX       RCO          ROH          RCH1         RCH2         RCH3           ACOH           AOCH1          AOCH2          AOCH3         AHH1           AHH2           AHH3            ENERGY       POINT
 "MMM"   1.42077677   0.96013932   1.09171752   1.08440070   1.09171752   108.12930637   111.15221523   107.18733878   111.65221523   61.43364279   180.00000000   298.56635721   -115.60925612   65.0000
                                                  

 CCSD(T)-F12/cc-pVTZ-F12 energy=   -115.602157117877

     CCSD(T)-F12         MP2-F12          HF-SCF
   -115.60215712   -115.58373763   -115.09877786
 **********************************************************************************************************************************
 Molpro calculation terminated
