
 Primary working directories    : /tmpdir/job/2955616.undefined/molpro.AIwwNErvSK
 Secondary working directories  : /tmpdir/job/2955616.undefined/molpro.AIwwNErvSK
 Wavefunction directory         : /home/zcaposm/wfu/
 Main file repository           : /tmpdir/job/2955616.undefined/molpro.AIwwNErvSK/

 id        : uclcc

 Nodes                         nprocs
 node-h00a-010.myriad.ucl.ac.uk    1

 Using customized tuning parameters: mindgm=1; mindgv=20; mindgc=4; mindgr=1; noblas=0; minvec=7
 default implementation of scratch files=df  


 Variables initialized (945), CPU time= 0.00 sec
 ***,Methanol Ground State Energy with CCSD(T)-F12 and cc-pVTZ-F12
 memory,500,m;
 
 geometry={angstrom
 c
 o , 1, rco
 h , 2, roh, 1, acoh
 h1, 1, rch1, 2, aoch1  3  ahh1
 h2, 1, rch2, 2, aoch2, 3, ahh2
 h3, 1, rch3, 2, aoch3, 3, ahh3
 }
 
                                                ! Specify the initial values of the internal coordinates (in Angstroms and degrees)
 
 rco= 1.42077677
 roh= 0.96013932
 rch1= 1.091717515605
 rch2= 1.08440070258
 rch3= 1.091717515605
 acoh= 108.37930637
 aoch1= 111.6522152299
 aoch2= 107.18733878260001
 aoch3= 111.6522152299
 ahh1=61.43364279
 ahh2=180.0
 ahh3=298.56635721
 
                                                                                 ! Use the cc-pVTZ-F12 basis set
 basis=cc-pVTZ-F12
 
 hf
 
                                                                                 ! Use explicitly correlated F12 methods
                                                                            ! First, MP2-F12 (useful for initial electronic energy)
 {mp2-f12}
 
                                                                        ! If desired, perform CCSD(T)-F12 for more accurate results
 {ccsd(t)-f12}
 
                                                                                 ! Output the energy
 xxx = "mmm"
 point = 50
 text ### CH3OH
 table,xxx,rco,roh,rch1,rch2,rch3,acoh,aoch1,aoch2,aoch3,ahh1,ahh2,ahh3,energy,point
 DIGITS, 0, 8, 8, 8, 8, 8, 8, 8, 8, 8,  8,  8,  8, 8, 4
 save,CH3OH_MEP_MP2_50.dat,new
 
 Commands  initialized (802), CPU time= 0.00 sec, 659 directives.
 Default parameters read. Elapsed time= 0.91 sec

 Checking input...
 Passed
1


                                         ***  PROGRAM SYSTEM MOLPRO  ***
                                       Copyright, TTI GmbH Stuttgart, 2015
                                    Version 2020.1 linked Oct  6 2020 12:04:11


 **********************************************************************************************************************************
 LABEL *   Methanol Ground State Energy with CCSD(T)-F12 and cc-pVTZ-F12                 
  64 bit serial version                                                                  DATE: 08-Oct-24          TIME: 17:16:02  
 **********************************************************************************************************************************

 SHA1:             8c27446f6450a7499e38f603e13c65f775101d37
 **********************************************************************************************************************************

 Memory per process:       500 MW
 Total memory per node:    500 MW

 GA preallocation disabled
 GA check disabled

 Variable memory set to 500.0 MW

 SETTING RCO            =         1.42077677                                  
 SETTING ROH            =         0.96013932                                  
 SETTING RCH1           =         1.09171752                                  
 SETTING RCH2           =         1.08440070                                  
 SETTING RCH3           =         1.09171752                                  
 SETTING ACOH           =       108.37930637                                  
 SETTING AOCH1          =       111.65221523                                  
 SETTING AOCH2          =       107.18733878                                  
 SETTING AOCH3          =       111.65221523                                  
 SETTING AHH1           =        61.43364279                                  
 SETTING AHH2           =       180.00000000                                  
 SETTING AHH3           =       298.56635721                                  
 SETTING BASIS          =    CC-PVTZ-F12


 Recomputing integrals since basis changed


 Using spherical harmonics

 Library entry C      S cc-pVTZ-F12          selected for orbital group  1
 Library entry C      P cc-pVTZ-F12          selected for orbital group  1
 Library entry C      D cc-pVTZ-F12          selected for orbital group  1
 Library entry C      F cc-pVTZ-F12          selected for orbital group  1
 Library entry O      S cc-pVTZ-F12          selected for orbital group  2
 Library entry O      P cc-pVTZ-F12          selected for orbital group  2
 Library entry O      D cc-pVTZ-F12          selected for orbital group  2
 Library entry O      F cc-pVTZ-F12          selected for orbital group  2
 Library entry H      S cc-pVTZ-F12          selected for orbital group  3
 Library entry H      P cc-pVTZ-F12          selected for orbital group  3
 Library entry H      D cc-pVTZ-F12          selected for orbital group  3


 PROGRAM * SEWARD (Integral evaluation for generally contracted gaussian basis sets)     Author: Roland Lindh, 1990

 Geometry written to block  1 of record 700

 Orientation using atomic masses  
 Molecule type: Asymmetric top
 Symmetry elements: X
 Rotational constants:      23.9521661     24.7982061    128.8654294 GHz  (calculated with average atomic masses)

 Point group  Cs  



 ATOMIC COORDINATES

 NR  ATOM    CHARGE       X              Y              Z

   1  C       6.00    0.000000000    0.025414344   -1.376821275
   2  O       8.00    0.000000000   -0.122090572    1.304002746
   3  H       1.00    0.000000000    1.565726409    1.969827414
   4  H1      1.00    1.684053272    0.982742843   -2.086504373
   5  H3      1.00   -1.684053272    0.982742843   -2.086504373
   6  H2      1.00    0.000000000   -1.896070895   -2.088999953

 Bond lengths in Bohr (Angstrom)

 1-2  2.684878979  1-4  2.063047110  1-5  2.063047110  1-6  2.049220337  2-3  1.814400356
     ( 1.420776770)     ( 1.091717516)     ( 1.091717516)     ( 1.084400703)     ( 0.960139320)

 Bond angles

  1-2-3  108.37930637   2-1-4  111.65221523   2-1-5  111.65221523   2-1-6  107.18733878

  4-1-5  109.43105099   4-1-6  108.39459424   5-1-6  108.39459424

 NUCLEAR CHARGE:                   18
 NUMBER OF PRIMITIVE AOS:         228
 NUMBER OF SYMMETRY AOS:          206
 NUMBER OF CONTRACTIONS:          178   (  114A'  +   64A"  )
 NUMBER OF INNER CORE ORBITALS:     0   (    0A'  +    0A"  )
 NUMBER OF OUTER CORE ORBITALS:     2   (    2A'  +    0A"  )
 NUMBER OF VALENCE ORBITALS:       12   (    9A'  +    3A"  )


 NUCLEAR REPULSION ENERGY   40.34232192

 Eigenvalues of metric

         1 0.880E-04 0.183E-03 0.310E-03 0.460E-03 0.493E-03 0.560E-03 0.617E-03 0.621E-03
         2 0.323E-03 0.570E-03 0.686E-03 0.178E-02 0.338E-02 0.493E-02 0.644E-02 0.870E-02


 Contracted 2-electron integrals neglected if value below      1.0D-11
 AO integral compression algorithm  1   Integral accuracy      1.0D-11

     331.612 MB (compressed) written to integral file ( 53.5%)


 NUMBER OF SORTED TWO-ELECTRON INTEGRALS:   64554730.     BUFFER LENGTH:  32768
 NUMBER OF SEGMENTS:   5  SEGMENT LENGTH:   15997996      RECORD LENGTH: 524288

 Memory used in sort:      16.56 MW

 SORT1 READ    77497885. AND WROTE    63554928. INTEGRALS IN    184 RECORDS. CPU TIME:     0.91 SEC, REAL TIME:     7.23 SEC
 SORT2 READ    63554928. AND WROTE    64554730. INTEGRALS IN   1265 RECORDS. CPU TIME:     1.16 SEC, REAL TIME:     9.73 SEC

 FILE SIZES:   FILE 1:   362.5 MBYTE,  FILE 4:   771.8 MBYTE,   TOTAL:   1134.3 MBYTE

 OPERATOR DM      FOR CENTER  0  COORDINATES:    0.000000    0.000000    0.000000


 **********************************************************************************************************************************
 DATASETS  * FILE   NREC   LENGTH (MB)   RECORD NAMES
              1      19      311.85       500      610      700      900      950      970     1000      129      960     1100   
                                          VAR    BASINP    GEOM    SYMINP    ZMAT    AOBASIS   BASIS     P2S    ABASIS      S 
                                         1400     1410     1200     1210     1080     1600     1650     1300     1700   
                                           T        V       H0       H01     AOSYM     SMH    MOLCAS    ERIS     OPER   

 PROGRAMS   *        TOTAL       INT
 CPU TIMES  *         6.34      6.21
 REAL TIME  *        32.09 SEC
 DISK USED  *         1.13 GB
 **********************************************************************************************************************************


 PROGRAM * RHF-SCF (CLOSED SHELL)       Authors: W. Meyer, H.-J. Werner


 NUMBER OF ELECTRONS:       9+    9-
 CONVERGENCE THRESHOLDS:    1.00E-05 (Density)    1.00E-07 (Energy)
 MAX. NUMBER OF ITERATIONS:       60
 INTERPOLATION TYPE:            DIIS
 INTERPOLATION STEPS:              2 (START)      1 (STEP)
 LEVEL SHIFTS:                  0.00 (CLOSED)  0.00 (OPEN) 



 Orbital guess generated from atomic densities. Full valence occupancy:   11   3

 Molecular orbital dump at record        2100.2

 Initial occupancy:   7   2

 ITERATION    DDIFF          GRAD             ENERGY        2-EL.EN.            DIPOLE MOMENTS         DIIS   ORB.
    1      0.000D+00      0.000D+00      -115.06241566    164.481460    0.00000    0.90324   -0.47469    0    start
    2      0.000D+00      0.668D-02      -115.09075177    161.897011    0.00000    0.49637   -0.30174    1    diag
    3      0.653D-02      0.365D-02      -115.09823237    163.161216    0.00000    0.59946   -0.39467    2    diag
    4      0.222D-02      0.720D-03      -115.09876439    162.984583    0.00000    0.59438   -0.39020    3    diag
    5      0.593D-03      0.145D-03      -115.09879870    162.996006    0.00000    0.59041   -0.39502    4    diag
    6      0.165D-03      0.270D-04      -115.09880026    162.993804    0.00000    0.59055   -0.39581    5    diag
    7      0.475D-04      0.571D-05      -115.09880033    162.993414    0.00000    0.59037   -0.39608    6    diag
    8      0.119D-04      0.150D-05      -115.09880033    162.993768    0.00000    0.59036   -0.39611    7    diag
    9      0.236D-05      0.474D-06      -115.09880033    162.993603    0.00000    0.59034   -0.39612    0    orth

 Final occupancy:   7   2

 !RHF STATE  1.1 Energy              -115.098800334565
 Nuclear energy                        40.34232192
 One-electron energy                 -236.93792357
 Two-electron energy                   81.49680132
 Virial quotient                       -1.00102250
 !RHF STATE  1.1 Dipole moment          0.00000000     0.59034068    -0.39611708
 Dipole moment /Debye                   0.00000000     1.50039808    -1.00676325

 Orbital energies:

         1.1          2.1          3.1          4.1          5.1          6.1          7.1          8.1          9.1
    -20.556230   -11.269788    -1.356740    -0.926469    -0.690766    -0.594500    -0.504068     0.054680     0.065009

         1.2          2.2          3.2          4.2
     -0.621492    -0.452107     0.073810     0.181476


 HOMO      2.2    -0.452107 =     -12.3025eV
 LUMO      8.1     0.054680 =       1.4879eV
 LUMO-HOMO         0.506788 =      13.7904eV


 **********************************************************************************************************************************
 DATASETS  * FILE   NREC   LENGTH (MB)   RECORD NAMES
              1      19      311.85       500      610      700      900      950      970     1000      129      960     1100   
                                          VAR    BASINP    GEOM    SYMINP    ZMAT    AOBASIS   BASIS     P2S    ABASIS      S 
                                         1400     1410     1200     1210     1080     1600     1650     1300     1700   
                                           T        V       H0       H01     AOSYM     SMH    MOLCAS    ERIS     OPER   

              2       4        3.18       700     1000      520     2100   
                                         GEOM     BASIS   MCVARS     RHF  

 PROGRAMS   *        TOTAL    HF-SCF       INT
 CPU TIMES  *         9.65      3.31      6.21
 REAL TIME  *        36.74 SEC
 DISK USED  *         1.13 GB
 **********************************************************************************************************************************


 PROGRAM * MP2 (Closed-shell)     Authors: C. Hampel, H.-J. Werner, 1991, M. Deegan, P.J. Knowles, 1992

                                   MP2-F12 implementation by H.-J. Werner, 2007

                   Density fitting integral evaluation by F.R. Manby, 2003,2007, G. Knizia, 2010


 Basis set AUG-CC-PVTZ/JKFIT generated.  Number of basis functions:   392 
 Basis set CC-PVTZ-F12/OPTRI generated.  Number of basis functions:   314 
 Basis set AUG-CC-PVTZ/MP2FIT generated. Number of basis functions:   396 

 Convergence thresholds:  THRVAR = 1.00D-08  THRDEN = 1.00D-06

 Number of core orbitals:           2 (   2   0 )
 Number of closed-shell orbitals:   7 (   5   2 )
 Number of external orbitals:     169 ( 107  62 )

 Molecular orbitals read from record     2100.2  Type=RHF/CANONICAL (state 1.1)

 MP2-F12 correlation treatment (H.-J. Werner, 2006)
 ==================================================

 Using MP2-F12 with ansatz 3C(FIX)

 Using projected zeroth-order Hamiltonian (+Z)

 FOCKRIB=T FOCKRIC=T FOCKRIP=T CABSP=T CABSA=T CABSK=T CABSF=T GBC=F EBC=F DMAT=T NOFIK=T NOPAO=1 SOLVE=-1  USEPAO=0
 EXCH_A= T EXCH_B= F EXCH_C= F EXCH_P= F

 Geminal basis:    OPTFULL  GEM_TYPE=SLATER  BETA=1.0  NGEM=6

 Optimizing Gaussian exponents for each gem_beta

 Geminal optimization for beta= 1.0000
 Weight function:   m=0, omega= 1.4646

 Augmented Hessian optimization of geminal fit. Trust ratio= 0.40000
 Convergence reached after   2 iterations. Final gradient= 8.66D-16, Step= 4.23D-06, Delta= 1.28D-09

 Alpha:                 0.19532     0.81920     2.85917     9.50073    35.69989   197.79328
 Coeff:                 0.27070     0.30552     0.18297     0.10986     0.06810     0.04224


 Symmetry turned off. Reference energy:       -115.098800334566

 All pairs explicitly correlated. Number of r12-pairs:           28

 Excluding core orbitals from MO domains

 AO(A)-basis ORBITAL           loaded. Number of functions:     178
 RI(R)-basis CC-PVTZ-F12/OPTRI loaded. Number of functions:     314
 DF-basis AUG-CC-PVTZ/JKFIT    loaded. Number of functions:     392

 Screening thresholds:   THRAO=  1.00D-10  THRMO=  1.00D-09  THRPROD=  1.00D-09
                         THRSW=  1.00D-05  THROV=  1.00D-12  THRAOF12= 1.00D-08

 CPU time for Fock operators                      6.28 sec

 Construction of ABS:
 Smallest eigenvalue of S          4.37E-04  (threshold= 1.00E-08)
 Ratio eigmin/eigmax               5.58E-05  (threshold= 1.00E-09)
 Smallest eigenvalue of S kept     4.37E-04  (threshold= 4.37E-04, 0 functions deleted, 314 kept)

 Construction of CABS:
 Smallest eigenvalue of S          7.26E-07  (threshold= 1.00E-08)
 Ratio eigmin/eigmax               7.26E-07  (threshold= 1.00E-09)
 Smallest eigenvalue of S kept     7.26E-07  (threshold= 7.26E-07, 0 functions deleted, 314 kept)

 CPU time for CABS singles                        0.04 sec

 CABS-singles contribution of  -0.00135360 patched into reference energy.
 New reference energy        -115.10015394

 AO(A)-basis ORBITAL           loaded. Number of functions:     178
 RI(R)-basis CC-PVTZ-F12/OPTRI loaded. Number of functions:     314
 DF-basis AUG-CC-PVTZ/MP2FIT   loaded. Number of functions:     396

 Screening thresholds:   THRAO=  1.00D-10  THRMO=  1.00D-09  THRPROD=  1.00D-09
                         THRSW=  1.00D-05  THROV=  1.00D-12  THRAOF12= 1.00D-08

 CPU time for 3-index integral evaluation         4.07 sec
 CPU time for first  half transformation          0.21 sec (11757.4 MFLOP/sec)
 CPU time for second half transformation          0.02 sec ( 3108.5 MFLOP/sec)
 CPU time for fitting                             0.03 sec (37980.8 MFLOP/sec)
 CPU time for tilde quantities                    0.03 sec (50348.4 MFLOP/sec)
 CPU time for assembly                            0.26 sec (47513.8 MFLOP/sec)
 CPU time for tranop_f12                          0.32 sec (49563.2 MFLOP/sec)
 CPU time for f12 integrals (total)               8.34 sec, Elapsed time:      8.78 sec
 CPU time for f12 matrices (total)                0.13 sec, Elapsed time:      0.16 sec

 Diagonal F12 approximation with fixed coefficients:  TSING= 0.500,  TTRIP= 0.250 (scaled by -1/beta)

 DF-MP2-F12 energy corrections:
 ==============================
 Approx.                                    Singlet             Triplet             Total
 DF-MP2-F12/3*C(DX,FIX)                -0.038287801457     -0.004212327073     -0.042500128530
 DF-MP2-F12/3*C(FIX)                   -0.036089151570     -0.003930543731     -0.040019695301
 DF-MP2-F12/3C(FIX)                    -0.036031866158     -0.004065507057     -0.040097373216

 DF-MP2-F12 correlation energies:
 ================================
 Approx.                                    Singlet             Triplet             Ecorr            Total Energy
 DF-MP2                                -0.291083007052     -0.152353465970     -0.443436473022   -115.543590409925
 DF-MP2-F12/3*C(DX,FIX)                -0.329370808509     -0.156565793043     -0.485936601552   -115.586090538455
 DF-MP2-F12/3*C(FIX)                   -0.327172158622     -0.156284009701     -0.483456168323   -115.583610105226
 DF-MP2-F12/3C(FIX)                    -0.327114873210     -0.156418973027     -0.483533846238   -115.583687783141

 SCS-DF-MP2 energies (F_SING= 1.20000  F_TRIP= 0.62222  F_PARALLEL= 0.33333):
 ============================================================================
 SCS-DF-MP2                            -0.444097320621   -115.544251257524
 SCS-DF-MP2-F12/3*C(DX,FIX)            -0.492663685882   -115.592817622785
 SCS-DF-MP2-F12/3*C(FIX)               -0.489849974160   -115.590003911063
 SCS-DF-MP2-F12/3C(FIX)                -0.489865208847   -115.590019145750

 Symmetry restored.
 Symmetry transformation completed.

 Number of N-1 electron functions:               7
 Number of N-2 electron functions:              28
 Number of singly external CSFs:               659
 Number of doubly external CSFs:            355020
 Total number of CSFs:                      355680

 Length of J-op  integral file:             103.49 MB
 Length of K-op  integral file:             127.95 MB

 Integral transformation finished. Total CPU:   0.56 sec, npass=  1  Memory used:   0.67 MW

 ITER.      SQ.NORM     CORR.ENERGY   TOTAL ENERGY   ENERGY CHANGE     VAR   MIC
   1      1.00000000    -0.44350291  -115.54365684    -0.44350291  0.00D+00   0
   2      1.11472603    -0.44350291  -115.54365684     0.00000000 -0.22D-15   0

 Solving MP2-F12 equations

   1      1.11468972    -0.48284233  -115.58299627    -0.03933943 -0.37D-04   0
   2      1.11468972    -0.48359887  -115.58375281    -0.00075654 -0.72D-18   0
   3      1.11468972    -0.48359887  -115.58375281     0.00000000 -0.29D-18   0

 CPU TIME FOR ITERATIVE MP2:    0.04 SEC


 MP2-F12 energy corrections:
 ===========================
 Approx.                                    Singlet             Triplet             Total
 MP2-F12/3*C(DX,FIX)                   -0.038287801457     -0.004212327073     -0.042500128530
 MP2-F12/3*C(FIX)                      -0.036089151570     -0.003930543731     -0.040019695301
 MP2-F12/3C(FIX)                       -0.036029163221     -0.004066802277     -0.040095965498

 MP2-F12 correlation energies:
 =============================
 Approx.                                    Singlet             Triplet             Ecorr            Total Energy
 MP2                                   -0.291266298004     -0.152236609619     -0.443502907623   -115.543656844526
 MP2-F12/3*C(DX,FIX)                   -0.329554099461     -0.156448936692     -0.486003036153   -115.586156973056
 MP2-F12/3*C(FIX)                      -0.327355449574     -0.156167153350     -0.483522602924   -115.583676539827
 MP2-F12/3C(FIX)                       -0.327295461225     -0.156303411896     -0.483598873121   -115.583752810024

 SCS-MP2 energies (F_SING= 1.20000  F_TRIP= 0.62222  F_PARALLEL= 0.33333):
 =========================================================================
 SCS-MP2                               -0.444244559145   -115.544398496048
 SCS-MP2-F12/3*C(DX,FIX)               -0.492810924406   -115.592964861309
 SCS-MP2-F12/3*C(FIX)                  -0.489997212684   -115.590151149587
 SCS-MP2-F12/3C(FIX)                   -0.490010009761   -115.590163946664


  Reference energy                   -115.098800334566
  F12 singles correction               -0.001353602337

 F12 singles corrections added to reference energy

  New reference energy               -115.100153936903

  F12/3C(F) singlet correction         -0.036029163221
  F12/3C(F) triplet correction         -0.004066802277
  F12/3C(F) total correction           -0.040095965498
  MP2-F12/3C(F) singlet pair energy    -0.327295461225
  MP2-F12/3C(F) triplet pair energy    -0.156303411896
  MP2-F12/3C(F) correlation energy     -0.483598873121

 !MP2-F12/3C(F) total energy         -115.583752810024


 **********************************************************************************************************************************
 DATASETS  * FILE   NREC   LENGTH (MB)   RECORD NAMES
              1      20      317.59       500      610      700      900      950      970     1000      129      960     1100   
                                          VAR    BASINP    GEOM    SYMINP    ZMAT    AOBASIS   BASIS     P2S    ABASIS      S 
                                         1400     1410     1200     1210     1080     1600     1650     1300     1700     1380   
                                           T        V       H0       H01     AOSYM     SMH    MOLCAS    ERIS     OPER     JKOP   

              2       7        3.55       700     1000      520     2100     7360     7350     7000   
                                         GEOM     BASIS   MCVARS     RHF    F12ABS    EF12   

 PROGRAMS   *        TOTAL   MP2-F12    HF-SCF       INT
 CPU TIMES  *        25.24     15.59      3.31      6.21
 REAL TIME  *        54.77 SEC
 DISK USED  *         1.13 GB
 **********************************************************************************************************************************


 PROGRAM * CCSD (Closed-shell coupled cluster)     Authors: C. Hampel, H.-J. Werner, 1991, M. Deegan, P.J. Knowles, 1992

                                  CCSD-F12 implementation by  H.-J. Werner, 2007

                   Density fitting integral evaluation by F.R. Manby, 2003,2007, G. Knizia, 2010



 Convergence thresholds:  THRVAR = 1.00D-08  THRDEN = 1.00D-06

 CCSD(T)     terms to be evaluated (factor= 1.000)


 Number of core orbitals:           2 (   2   0 )
 Number of closed-shell orbitals:   7 (   5   2 )
 Number of external orbitals:     169 ( 107  62 )

 Molecular orbitals read from record     2100.2  Type=RHF/CANONICAL (state 1.1)

 MP2-F12 correlation treatment (H.-J. Werner, 2006)
 ==================================================

 Using MP2-F12 with ansatz 3C(FIX)

 Using projected zeroth-order Hamiltonian (+Z)

 FOCKRIB=T FOCKRIC=T FOCKRIP=T CABSP=T CABSA=T CABSK=T CABSF=T GBC=F EBC=F DMAT=T NOFIK=T NOPAO=1 SOLVE=-1  USEPAO=0
 EXCH_A= T EXCH_B= F EXCH_C= F EXCH_P= F

 Geminal basis:    OPTFULL  GEM_TYPE=SLATER  BETA=1.0  NGEM=6

 Optimizing Gaussian exponents for each gem_beta

 Geminal optimization for beta= 1.0000
 Weight function:   m=0, omega= 1.4646

 Augmented Hessian optimization of geminal fit. Trust ratio= 0.40000
 Convergence reached after   2 iterations. Final gradient= 8.66D-16, Step= 4.23D-06, Delta= 1.28D-09

 Alpha:                 0.19532     0.81920     2.85917     9.50073    35.69989   197.79328
 Coeff:                 0.27070     0.30552     0.18297     0.10986     0.06810     0.04224


 Symmetry turned off. Reference energy:       -115.098800334566

 All pairs explicitly correlated. Number of r12-pairs:           28

 Excluding core orbitals from MO domains

 AO(A)-basis ORBITAL           loaded. Number of functions:     178
 RI(R)-basis CC-PVTZ-F12/OPTRI loaded. Number of functions:     314
 DF-basis AUG-CC-PVTZ/JKFIT    loaded. Number of functions:     392

 Screening thresholds:   THRAO=  1.00D-10  THRMO=  1.00D-09  THRPROD=  1.00D-09
                         THRSW=  1.00D-05  THROV=  1.00D-12  THRAOF12= 1.00D-08

 CPU time for Fock operators                      6.28 sec

 Construction of ABS:
 Smallest eigenvalue of S          4.37E-04  (threshold= 1.00E-08)
 Ratio eigmin/eigmax               5.58E-05  (threshold= 1.00E-09)
 Smallest eigenvalue of S kept     4.37E-04  (threshold= 4.37E-04, 0 functions deleted, 314 kept)

 Construction of CABS:
 Smallest eigenvalue of S          7.26E-07  (threshold= 1.00E-08)
 Ratio eigmin/eigmax               7.26E-07  (threshold= 1.00E-09)
 Smallest eigenvalue of S kept     7.26E-07  (threshold= 7.26E-07, 0 functions deleted, 314 kept)

 CPU time for CABS singles                        0.05 sec

 CABS-singles contribution of  -0.00135360 patched into reference energy.
 New reference energy        -115.10015394

 AO(A)-basis ORBITAL           loaded. Number of functions:     178
 RI(R)-basis CC-PVTZ-F12/OPTRI loaded. Number of functions:     314
 DF-basis AUG-CC-PVTZ/MP2FIT   loaded. Number of functions:     396

 Screening thresholds:   THRAO=  1.00D-10  THRMO=  1.00D-09  THRPROD=  1.00D-09
                         THRSW=  1.00D-05  THROV=  1.00D-12  THRAOF12= 1.00D-08

 CPU time for 3-index integral evaluation         3.93 sec
 CPU time for first  half transformation          0.33 sec ( 7482.0 MFLOP/sec)
 CPU time for second half transformation          0.03 sec ( 2072.3 MFLOP/sec)
 CPU time for sorting                             0.01 sec
 CPU time for fitting                             0.02 sec (56971.3 MFLOP/sec)
 CPU time for tilde quantities                    0.04 sec (37761.3 MFLOP/sec)
 CPU time for assembly                            0.23 sec (53711.3 MFLOP/sec)
 CPU time for tranop_f12                          0.34 sec (46647.7 MFLOP/sec)
 CPU time for f12 integrals (total)               8.32 sec, Elapsed time:      8.74 sec
 CPU time for f12 matrices (total)                0.12 sec, Elapsed time:      0.16 sec

 Diagonal F12 approximation with fixed coefficients:  TSING= 0.500,  TTRIP= 0.250 (scaled by -1/beta)

 DF-MP2-F12 energy corrections:
 ==============================
 Approx.                                    Singlet             Triplet             Total
 DF-MP2-F12/3*C(DX,FIX)                -0.038287801457     -0.004212327073     -0.042500128530
 DF-MP2-F12/3*C(FIX)                   -0.036089151570     -0.003930543731     -0.040019695301
 DF-MP2-F12/3C(FIX)                    -0.036031866158     -0.004065507057     -0.040097373216

 DF-MP2-F12 correlation energies:
 ================================
 Approx.                                    Singlet             Triplet             Ecorr            Total Energy
 DF-MP2                                -0.291083007052     -0.152353465970     -0.443436473022   -115.543590409925
 DF-MP2-F12/3*C(DX,FIX)                -0.329370808509     -0.156565793043     -0.485936601552   -115.586090538455
 DF-MP2-F12/3*C(FIX)                   -0.327172158622     -0.156284009701     -0.483456168323   -115.583610105226
 DF-MP2-F12/3C(FIX)                    -0.327114873210     -0.156418973027     -0.483533846238   -115.583687783141

 SCS-DF-MP2 energies (F_SING= 1.20000  F_TRIP= 0.62222  F_PARALLEL= 0.33333):
 ============================================================================
 SCS-DF-MP2                            -0.444097320621   -115.544251257524
 SCS-DF-MP2-F12/3*C(DX,FIX)            -0.492663685882   -115.592817622785
 SCS-DF-MP2-F12/3*C(FIX)               -0.489849974160   -115.590003911063
 SCS-DF-MP2-F12/3C(FIX)                -0.489865208847   -115.590019145750

 Symmetry restored.
 Symmetry transformation completed.

 Number of N-1 electron functions:               7
 Number of N-2 electron functions:              28
 Number of singly external CSFs:               659
 Number of doubly external CSFs:            355020
 Total number of CSFs:                      355680

 Length of J-op  integral file:             103.62 MB
 Length of K-op  integral file:             127.95 MB
 Length of 3-ext integral record:             0.00 MB

 Memory could be reduced to 24.20 Mwords without degradation in triples

 Integral transformation finished. Total CPU:   1.41 sec, npass=  1  Memory used:   7.45 MW

 Reference energy:                   -115.10015394

 Adding F12 terms to K(Cij), methodcc=6,  factor= 1.0

 ITER.      SQ.NORM     CORR.ENERGY   TOTAL ENERGY   ENERGY CHANGE        DEN1      VAR(S)    VAR(P)  DIIS     TIME  TIME/IT
   1      1.11761610    -0.45283872  -115.55299266    -0.00933582     0.00166370  0.15D-02  0.19D-02  1  1    17.27     1.09
   2      1.12502523    -0.45320099  -115.55335493    -0.00036227    -0.00904526  0.24D-04  0.23D-03  2  2    18.28     1.11
   3      1.12775464    -0.45337843  -115.55353237    -0.00017744    -0.00186508  0.15D-04  0.13D-04  3  3    19.28     1.11
   4      1.12870180    -0.45339632  -115.55355026    -0.00001789    -0.00060001  0.86D-06  0.12D-05  4  4    20.30     1.12
   5      1.12885745    -0.45339788  -115.55355181    -0.00000155    -0.00003791  0.23D-06  0.10D-06  5  5    21.31     1.12
   6      1.12890009    -0.45339552  -115.55354946     0.00000235    -0.00000423  0.36D-07  0.96D-08  6  6    22.33     1.12
   7      1.12891125    -0.45339465  -115.55354858     0.00000088    -0.00000299  0.40D-08  0.14D-08  6  1    23.33     1.12
   8      1.12891305    -0.45339471  -115.55354864    -0.00000006     0.00000034  0.68D-09  0.20D-09  6  3    24.35     1.12

 Norm of t1 vector:      0.05001314      S-energy:    -0.00000037      T1 diagnostic:  0.00945160
                                                                       D1 diagnostic:  0.02003412

 Adding energy correction from Wij-K(Fij), methodcc=6  factor= 1.0

  CCSD correlation energy              -0.453394707708
  MP2-F12 correction (uncoupled)       -0.038545918222
  C*T doubles correction               -0.001164722220
  f12b correction                       0.007098825949


 Total CPU time for triples:     12.90 sec


 RESULTS
 =======

  Reference energy                   -115.098800334566
  F12 singles correction               -0.001353602337

 F12 singles corrections added to reference energy

  New reference energy               -115.100153936903

  F12a singlet correction              -0.035792403801
  F12a triplet correction              -0.003918236641
  F12a total correction                -0.039710640442

 F12a corrections for ansatz F12/3C(FIX) added to CCSD energy

  CCSD-F12a singlet pair energy        -0.351197019460
  CCSD-F12a triplet pair energy        -0.141907962274
  CCSD-F12a correlation energy         -0.493105348150

  Triples (T) contribution             -0.016012361046
  Total correlation energy             -0.509117709196

  CCSD-F12a total energy             -115.593259285053
  CCSD[T]-F12a energy                -115.609824729610
  CCSD-T-F12a energy                 -115.609027966411
 !CCSD(T)-F12a total energy          -115.609271646099

 F12b corrections for ansatz F12/3C(FIX) added to CCSD(T)-F12a energy

  CCSD-F12b singlet pair energy        -0.344560256365
  CCSD-F12b triplet pair energy        -0.141445899420
  CCSD-F12b correlation energy         -0.486006522201

  Triples (T) contribution             -0.016012361046
  Total correlation energy             -0.502018883247

  CCSD-F12b total energy             -115.586160459104
  CCSD[T]-F12b energy                -115.602725903661
  CCSD-T-F12b energy                 -115.601929140462
 !CCSD(T)-F12b total energy          -115.602172820150

 Timing summary (sec):

 STEP                 CPU(USER)    SYS     CPU(TOT)    WALL
 Transformation          1.43      0.20      1.63      1.67
 CCSD iterations         8.07      0.85      8.92      9.03
 Triples                12.90      0.52     13.42     13.55
 MP2-F12                14.86      0.59     15.45     15.76
 F12b energy             0.81      0.07      0.88      0.91

 Program statistics:

 Available memory in ccsd:               499999650
 Min. memory needed in ccsd:               1149135
 Max. memory used in ccsd:                 1443104
 Max. memory used in cckext:               1888566 ( 9 integral passes)



 **********************************************************************************************************************************
 DATASETS  * FILE   NREC   LENGTH (MB)   RECORD NAMES
              1      20      386.16       500      610      700      900      950      970     1000      129      960     1100   
                                          VAR    BASINP    GEOM    SYMINP    ZMAT    AOBASIS   BASIS     P2S    ABASIS      S 
                                         1400     1410     1200     1210     1080     1600     1650     1300     1700     1380   
                                           T        V       H0       H01     AOSYM     SMH    MOLCAS    ERIS     OPER     JKOP   

              2       7        3.55       700     1000      520     2100     7360     7350     7000   
                                         GEOM     BASIS   MCVARS     RHF    F12ABS    EF12   

 PROGRAMS   *        TOTAL   CCSD(T)   MP2-F12    HF-SCF       INT
 CPU TIMES  *        63.35     38.10     15.59      3.31      6.21
 REAL TIME  *        95.79 SEC
 DISK USED  *         1.13 GB
 **********************************************************************************************************************************
 SETTING XXX            =    "MMM"
 SETTING POINT          =        50.00000000                                  

 *** ### CH3OH


 XXX       RCO          ROH          RCH1         RCH2         RCH3           ACOH           AOCH1          AOCH2          AOCH3         AHH1           AHH2           AHH3            ENERGY       POINT
 "MMM"   1.42077677   0.96013932   1.09171752   1.08440070   1.09171752   108.37930637   111.65221523   107.18733878   111.65221523   61.43364279   180.00000000   298.56635721   -115.60927165   50.0000
                                                  

 CCSD(T)-F12/cc-pVTZ-F12 energy=   -115.602172820150

     CCSD(T)-F12         MP2-F12          HF-SCF
   -115.60217282   -115.58375281   -115.09880033
 **********************************************************************************************************************************
 Molpro calculation terminated
