
 Primary working directories    : /tmpdir/job/2955620.undefined/molpro.gY92zTThna
 Secondary working directories  : /tmpdir/job/2955620.undefined/molpro.gY92zTThna
 Wavefunction directory         : /home/zcaposm/wfu/
 Main file repository           : /tmpdir/job/2955620.undefined/molpro.gY92zTThna/

 id        : uclcc

 Nodes                         nprocs
 node-d00a-085.myriad.ucl.ac.uk    1

 Using customized tuning parameters: mindgm=1; mindgv=20; mindgc=4; mindgr=1; noblas=0; minvec=7
 default implementation of scratch files=df  


 Variables initialized (945), CPU time= 0.01 sec
 ***,Methanol Ground State Energy with CCSD(T)-F12 and cc-pVTZ-F12
 memory,500,m;
 
 geometry={angstrom
 c
 o , 1, rco
 h , 2, roh, 1, acoh
 h1, 1, rch1, 2, aoch1  3  ahh1
 h2, 1, rch2, 2, aoch2, 3, ahh2
 h3, 1, rch3, 2, aoch3, 3, ahh3
 }
 
                                                ! Specify the initial values of the internal coordinates (in Angstroms and degrees)
 
 rco= 1.42077677
 roh= 0.96013932
 rch1= 1.091717515605
 rch2= 1.08440070258
 rch3= 1.091717515605
 acoh= 108.87930637
 aoch1= 111.6522152299
 aoch2= 107.18733878260001
 aoch3= 111.6522152299
 ahh1=61.43364279
 ahh2=180.0
 ahh3=298.56635721
 
                                                                                 ! Use the cc-pVTZ-F12 basis set
 basis=cc-pVTZ-F12
 
 hf
 
                                                                                 ! Use explicitly correlated F12 methods
                                                                            ! First, MP2-F12 (useful for initial electronic energy)
 {mp2-f12}
 
                                                                        ! If desired, perform CCSD(T)-F12 for more accurate results
 {ccsd(t)-f12}
 
                                                                                 ! Output the energy
 xxx = "mmm"
 point = 54
 text ### CH3OH
 table,xxx,rco,roh,rch1,rch2,rch3,acoh,aoch1,aoch2,aoch3,ahh1,ahh2,ahh3,energy,point
 DIGITS, 0, 8, 8, 8, 8, 8, 8, 8, 8, 8,  8,  8,  8, 8, 4
 save,CH3OH_MEP_MP2_54.dat,new
 
 Commands  initialized (802), CPU time= 0.02 sec, 659 directives.
 Default parameters read. Elapsed time= 0.24 sec

 Checking input...
 Passed
1


                                         ***  PROGRAM SYSTEM MOLPRO  ***
                                       Copyright, TTI GmbH Stuttgart, 2015
                                    Version 2020.1 linked Oct  6 2020 12:04:11


 **********************************************************************************************************************************
 LABEL *   Methanol Ground State Energy with CCSD(T)-F12 and cc-pVTZ-F12                 
  64 bit serial version                                                                  DATE: 08-Oct-24          TIME: 17:18:06  
 **********************************************************************************************************************************

 SHA1:             8c27446f6450a7499e38f603e13c65f775101d37
 **********************************************************************************************************************************

 Memory per process:       500 MW
 Total memory per node:    500 MW

 GA preallocation disabled
 GA check disabled

 Variable memory set to 500.0 MW

 SETTING RCO            =         1.42077677                                  
 SETTING ROH            =         0.96013932                                  
 SETTING RCH1           =         1.09171752                                  
 SETTING RCH2           =         1.08440070                                  
 SETTING RCH3           =         1.09171752                                  
 SETTING ACOH           =       108.87930637                                  
 SETTING AOCH1          =       111.65221523                                  
 SETTING AOCH2          =       107.18733878                                  
 SETTING AOCH3          =       111.65221523                                  
 SETTING AHH1           =        61.43364279                                  
 SETTING AHH2           =       180.00000000                                  
 SETTING AHH3           =       298.56635721                                  
 SETTING BASIS          =    CC-PVTZ-F12


 Recomputing integrals since basis changed


 Using spherical harmonics

 Library entry C      S cc-pVTZ-F12          selected for orbital group  1
 Library entry C      P cc-pVTZ-F12          selected for orbital group  1
 Library entry C      D cc-pVTZ-F12          selected for orbital group  1
 Library entry C      F cc-pVTZ-F12          selected for orbital group  1
 Library entry O      S cc-pVTZ-F12          selected for orbital group  2
 Library entry O      P cc-pVTZ-F12          selected for orbital group  2
 Library entry O      D cc-pVTZ-F12          selected for orbital group  2
 Library entry O      F cc-pVTZ-F12          selected for orbital group  2
 Library entry H      S cc-pVTZ-F12          selected for orbital group  3
 Library entry H      P cc-pVTZ-F12          selected for orbital group  3
 Library entry H      D cc-pVTZ-F12          selected for orbital group  3


 PROGRAM * SEWARD (Integral evaluation for generally contracted gaussian basis sets)     Author: Roland Lindh, 1990

 Geometry written to block  1 of record 700

 Orientation using atomic masses  
 Molecule type: Asymmetric top
 Symmetry elements: X
 Rotational constants:      23.9394291     24.7782548    129.0359804 GHz  (calculated with average atomic masses)

 Point group  Cs  



 ATOMIC COORDINATES

 NR  ATOM    CHARGE       X              Y              Z

   1  C       6.00    0.000000000    0.025867255   -1.377278787
   2  O       8.00    0.000000000   -0.122159534    1.303516469
   3  H       1.00    0.000000000    1.559650328    1.984371989
   4  H1      1.00    1.684053272    0.983333889   -2.086775509
   5  H3      1.00   -1.684053272    0.983333889   -2.086775509
   6  H2      1.00    0.000000000   -1.895479308   -2.089831506

 Bond lengths in Bohr (Angstrom)

 1-2  2.684878979  1-4  2.063047110  1-5  2.063047110  1-6  2.049220337  2-3  1.814400356
     ( 1.420776770)     ( 1.091717516)     ( 1.091717516)     ( 1.084400703)     ( 0.960139320)

 Bond angles

  1-2-3  108.87930637   2-1-4  111.65221523   2-1-5  111.65221523   2-1-6  107.18733878

  4-1-5  109.43105099   4-1-6  108.39459424   5-1-6  108.39459424

 NUCLEAR CHARGE:                   18
 NUMBER OF PRIMITIVE AOS:         228
 NUMBER OF SYMMETRY AOS:          206
 NUMBER OF CONTRACTIONS:          178   (  114A'  +   64A"  )
 NUMBER OF INNER CORE ORBITALS:     0   (    0A'  +    0A"  )
 NUMBER OF OUTER CORE ORBITALS:     2   (    2A'  +    0A"  )
 NUMBER OF VALENCE ORBITALS:       12   (    9A'  +    3A"  )


 NUCLEAR REPULSION ENERGY   40.33596000

 Eigenvalues of metric

         1 0.880E-04 0.183E-03 0.310E-03 0.460E-03 0.493E-03 0.560E-03 0.616E-03 0.621E-03
         2 0.323E-03 0.570E-03 0.686E-03 0.178E-02 0.338E-02 0.492E-02 0.644E-02 0.869E-02


 Contracted 2-electron integrals neglected if value below      1.0D-11
 AO integral compression algorithm  1   Integral accuracy      1.0D-11

     331.612 MB (compressed) written to integral file ( 53.5%)


 NUMBER OF SORTED TWO-ELECTRON INTEGRALS:   64554730.     BUFFER LENGTH:  32768
 NUMBER OF SEGMENTS:   5  SEGMENT LENGTH:   15997996      RECORD LENGTH: 524288

 Memory used in sort:      16.56 MW

 SORT1 READ    77497885. AND WROTE    63554071. INTEGRALS IN    184 RECORDS. CPU TIME:     1.02 SEC, REAL TIME:     9.69 SEC
 SORT2 READ    63554071. AND WROTE    64554730. INTEGRALS IN   1265 RECORDS. CPU TIME:     1.37 SEC, REAL TIME:    14.14 SEC

 FILE SIZES:   FILE 1:   362.5 MBYTE,  FILE 4:   771.8 MBYTE,   TOTAL:   1134.3 MBYTE

 OPERATOR DM      FOR CENTER  0  COORDINATES:    0.000000    0.000000    0.000000


 **********************************************************************************************************************************
 DATASETS  * FILE   NREC   LENGTH (MB)   RECORD NAMES
              1      19      311.82       500      610      700      900      950      970     1000      129      960     1100   
                                          VAR    BASINP    GEOM    SYMINP    ZMAT    AOBASIS   BASIS     P2S    ABASIS      S 
                                         1400     1410     1200     1210     1080     1600     1650     1300     1700   
                                           T        V       H0       H01     AOSYM     SMH    MOLCAS    ERIS     OPER   

 PROGRAMS   *        TOTAL       INT
 CPU TIMES  *         6.12      5.97
 REAL TIME  *        38.41 SEC
 DISK USED  *         1.13 GB
 **********************************************************************************************************************************


 PROGRAM * RHF-SCF (CLOSED SHELL)       Authors: W. Meyer, H.-J. Werner


 NUMBER OF ELECTRONS:       9+    9-
 CONVERGENCE THRESHOLDS:    1.00E-05 (Density)    1.00E-07 (Energy)
 MAX. NUMBER OF ITERATIONS:       60
 INTERPOLATION TYPE:            DIIS
 INTERPOLATION STEPS:              2 (START)      1 (STEP)
 LEVEL SHIFTS:                  0.00 (CLOSED)  0.00 (OPEN) 



 Orbital guess generated from atomic densities. Full valence occupancy:   11   3

 Molecular orbital dump at record        2100.2

 Initial occupancy:   7   2

 ITERATION    DDIFF          GRAD             ENERGY        2-EL.EN.            DIPOLE MOMENTS         DIIS   ORB.
    1      0.000D+00      0.000D+00      -115.06248201    164.476052    0.00000    0.90119   -0.46819    0    start
    2      0.000D+00      0.668D-02      -115.09078827    161.886447    0.00000    0.49604   -0.29793    1    diag
    3      0.652D-02      0.365D-02      -115.09825952    163.152882    0.00000    0.59863   -0.39027    2    diag
    4      0.222D-02      0.720D-03      -115.09879090    162.976112    0.00000    0.59361   -0.38597    3    diag
    5      0.593D-03      0.144D-03      -115.09882503    162.987436    0.00000    0.58965   -0.39080    4    diag
    6      0.165D-03      0.269D-04      -115.09882657    162.985273    0.00000    0.58979   -0.39158    5    diag
    7      0.474D-04      0.569D-05      -115.09882664    162.984868    0.00000    0.58961   -0.39186    6    diag
    8      0.119D-04      0.150D-05      -115.09882665    162.985227    0.00000    0.58959   -0.39189    7    diag
    9      0.237D-05      0.477D-06      -115.09882665    162.985062    0.00000    0.58958   -0.39189    0    orth

 Final occupancy:   7   2

 !RHF STATE  1.1 Energy              -115.098826649284
 Nuclear energy                        40.33596000
 One-electron energy                 -236.92731764
 Two-electron energy                   81.49253100
 Virial quotient                       -1.00103444
 !RHF STATE  1.1 Dipole moment          0.00000000     0.58957918    -0.39189169
 Dipole moment /Debye                   0.00000000     1.49846265    -0.99602408

 Orbital energies:

         1.1          2.1          3.1          4.1          5.1          6.1          7.1          8.1          9.1
    -20.555993   -11.269824    -1.356363    -0.926662    -0.690683    -0.594715    -0.503544     0.054742     0.065010

         1.2          2.2          3.2          4.2
     -0.621349    -0.451995     0.073838     0.181441


 HOMO      2.2    -0.451995 =     -12.2994eV
 LUMO      8.1     0.054742 =       1.4896eV
 LUMO-HOMO         0.506736 =      13.7890eV


 **********************************************************************************************************************************
 DATASETS  * FILE   NREC   LENGTH (MB)   RECORD NAMES
              1      19      311.82       500      610      700      900      950      970     1000      129      960     1100   
                                          VAR    BASINP    GEOM    SYMINP    ZMAT    AOBASIS   BASIS     P2S    ABASIS      S 
                                         1400     1410     1200     1210     1080     1600     1650     1300     1700   
                                           T        V       H0       H01     AOSYM     SMH    MOLCAS    ERIS     OPER   

              2       4        3.18       700     1000      520     2100   
                                         GEOM     BASIS   MCVARS     RHF  

 PROGRAMS   *        TOTAL    HF-SCF       INT
 CPU TIMES  *         9.09      2.97      5.97
 REAL TIME  *        43.41 SEC
 DISK USED  *         1.13 GB
 **********************************************************************************************************************************


 PROGRAM * MP2 (Closed-shell)     Authors: C. Hampel, H.-J. Werner, 1991, M. Deegan, P.J. Knowles, 1992

                                   MP2-F12 implementation by H.-J. Werner, 2007

                   Density fitting integral evaluation by F.R. Manby, 2003,2007, G. Knizia, 2010


 Basis set AUG-CC-PVTZ/JKFIT generated.  Number of basis functions:   392 
 Basis set CC-PVTZ-F12/OPTRI generated.  Number of basis functions:   314 
 Basis set AUG-CC-PVTZ/MP2FIT generated. Number of basis functions:   396 

 Convergence thresholds:  THRVAR = 1.00D-08  THRDEN = 1.00D-06

 Number of core orbitals:           2 (   2   0 )
 Number of closed-shell orbitals:   7 (   5   2 )
 Number of external orbitals:     169 ( 107  62 )

 Molecular orbitals read from record     2100.2  Type=RHF/CANONICAL (state 1.1)

 MP2-F12 correlation treatment (H.-J. Werner, 2006)
 ==================================================

 Using MP2-F12 with ansatz 3C(FIX)

 Using projected zeroth-order Hamiltonian (+Z)

 FOCKRIB=T FOCKRIC=T FOCKRIP=T CABSP=T CABSA=T CABSK=T CABSF=T GBC=F EBC=F DMAT=T NOFIK=T NOPAO=1 SOLVE=-1  USEPAO=0
 EXCH_A= T EXCH_B= F EXCH_C= F EXCH_P= F

 Geminal basis:    OPTFULL  GEM_TYPE=SLATER  BETA=1.0  NGEM=6

 Optimizing Gaussian exponents for each gem_beta

 Geminal optimization for beta= 1.0000
 Weight function:   m=0, omega= 1.4646

 Augmented Hessian optimization of geminal fit. Trust ratio= 0.40000
 Convergence reached after   2 iterations. Final gradient= 8.66D-16, Step= 4.23D-06, Delta= 1.28D-09

 Alpha:                 0.19532     0.81920     2.85917     9.50073    35.69989   197.79328
 Coeff:                 0.27070     0.30552     0.18297     0.10986     0.06810     0.04224


 Symmetry turned off. Reference energy:       -115.098826649285

 All pairs explicitly correlated. Number of r12-pairs:           28

 Excluding core orbitals from MO domains

 AO(A)-basis ORBITAL           loaded. Number of functions:     178
 RI(R)-basis CC-PVTZ-F12/OPTRI loaded. Number of functions:     314
 DF-basis AUG-CC-PVTZ/JKFIT    loaded. Number of functions:     392

 Screening thresholds:   THRAO=  1.00D-10  THRMO=  1.00D-09  THRPROD=  1.00D-09
                         THRSW=  1.00D-05  THROV=  1.00D-12  THRAOF12= 1.00D-08

 CPU time for Fock operators                      5.48 sec

 Construction of ABS:
 Smallest eigenvalue of S          4.38E-04  (threshold= 1.00E-08)
 Ratio eigmin/eigmax               5.61E-05  (threshold= 1.00E-09)
 Smallest eigenvalue of S kept     4.38E-04  (threshold= 4.38E-04, 0 functions deleted, 314 kept)

 Construction of CABS:
 Smallest eigenvalue of S          7.26E-07  (threshold= 1.00E-08)
 Ratio eigmin/eigmax               7.26E-07  (threshold= 1.00E-09)
 Smallest eigenvalue of S kept     7.26E-07  (threshold= 7.26E-07, 0 functions deleted, 314 kept)

 CPU time for CABS singles                        0.04 sec

 CABS-singles contribution of  -0.00135353 patched into reference energy.
 New reference energy        -115.10018018

 AO(A)-basis ORBITAL           loaded. Number of functions:     178
 RI(R)-basis CC-PVTZ-F12/OPTRI loaded. Number of functions:     314
 DF-basis AUG-CC-PVTZ/MP2FIT   loaded. Number of functions:     396

 Screening thresholds:   THRAO=  1.00D-10  THRMO=  1.00D-09  THRPROD=  1.00D-09
                         THRSW=  1.00D-05  THROV=  1.00D-12  THRAOF12= 1.00D-08

 CPU time for 3-index integral evaluation         3.40 sec
 CPU time for first  half transformation          0.29 sec ( 8514.0 MFLOP/sec)
 CPU time for second half transformation          0.02 sec ( 3108.5 MFLOP/sec)
 CPU time for sorting                             0.02 sec
 CPU time for fitting                             0.03 sec (37980.8 MFLOP/sec)
 CPU time for tilde quantities                    0.02 sec (75522.6 MFLOP/sec)
 CPU time for assembly                            0.20 sec (61768.0 MFLOP/sec)
 CPU time for tranop_f12                          0.24 sec (66084.3 MFLOP/sec)
 CPU time for f12 integrals (total)               7.20 sec, Elapsed time:      7.66 sec
 CPU time for f12 matrices (total)                0.12 sec, Elapsed time:      0.17 sec

 Diagonal F12 approximation with fixed coefficients:  TSING= 0.500,  TTRIP= 0.250 (scaled by -1/beta)

 DF-MP2-F12 energy corrections:
 ==============================
 Approx.                                    Singlet             Triplet             Total
 DF-MP2-F12/3*C(DX,FIX)                -0.038288654294     -0.004211764827     -0.042500419121
 DF-MP2-F12/3*C(FIX)                   -0.036090335556     -0.003929899596     -0.040020235151
 DF-MP2-F12/3C(FIX)                    -0.036033065084     -0.004064843040     -0.040097908124

 DF-MP2-F12 correlation energies:
 ================================
 Approx.                                    Singlet             Triplet             Ecorr            Total Energy
 DF-MP2                                -0.291059103526     -0.152334775430     -0.443393878956   -115.543574055303
 DF-MP2-F12/3*C(DX,FIX)                -0.329347757819     -0.156546540258     -0.485894298077   -115.586074474424
 DF-MP2-F12/3*C(FIX)                   -0.327149439081     -0.156264675026     -0.483414114107   -115.583594290454
 DF-MP2-F12/3C(FIX)                    -0.327092168610     -0.156399618470     -0.483491787080   -115.583671963427

 SCS-DF-MP2 energies (F_SING= 1.20000  F_TRIP= 0.62222  F_PARALLEL= 0.33333):
 ============================================================================
 SCS-DF-MP2                            -0.444057006721   -115.544237183068
 SCS-DF-MP2-F12/3*C(DX,FIX)            -0.492624045544   -115.592804221891
 SCS-DF-MP2-F12/3*C(FIX)               -0.489810680247   -115.589990856594
 SCS-DF-MP2-F12/3C(FIX)                -0.489825920491   -115.590006096838

 Symmetry restored.
 Symmetry transformation completed.

 Number of N-1 electron functions:               7
 Number of N-2 electron functions:              28
 Number of singly external CSFs:               659
 Number of doubly external CSFs:            355020
 Total number of CSFs:                      355680

 Length of J-op  integral file:             103.49 MB
 Length of K-op  integral file:             127.95 MB

 Integral transformation finished. Total CPU:   0.49 sec, npass=  1  Memory used:   0.67 MW

 ITER.      SQ.NORM     CORR.ENERGY   TOTAL ENERGY   ENERGY CHANGE     VAR   MIC
   1      1.00000000    -0.44346038  -115.54364056    -0.44346038  0.00D+00   0
   2      1.11470791    -0.44346038  -115.54364056     0.00000000  0.62D-18   0

 Solving MP2-F12 equations

   1      1.11467159    -0.48280054  -115.58298072    -0.03934016 -0.37D-04   0
   2      1.11467159    -0.48355687  -115.58373705    -0.00075633 -0.28D-18   0
   3      1.11467159    -0.48355687  -115.58373705     0.00000000  0.19D-18   0

 CPU TIME FOR ITERATIVE MP2:    0.04 SEC


 MP2-F12 energy corrections:
 ===========================
 Approx.                                    Singlet             Triplet             Total
 MP2-F12/3*C(DX,FIX)                   -0.038288654294     -0.004211764827     -0.042500419121
 MP2-F12/3*C(FIX)                      -0.036090335556     -0.003929899596     -0.040020235151
 MP2-F12/3C(FIX)                       -0.036030357222     -0.004066135786     -0.040096493007

 MP2-F12 correlation energies:
 =============================
 Approx.                                    Singlet             Triplet             Ecorr            Total Energy
 MP2                                   -0.291242348679     -0.152218031159     -0.443460379838   -115.543640556185
 MP2-F12/3*C(DX,FIX)                   -0.329531002972     -0.156429795987     -0.485960798959   -115.586140975306
 MP2-F12/3*C(FIX)                      -0.327332684234     -0.156147930755     -0.483480614989   -115.583660791336
 MP2-F12/3C(FIX)                       -0.327272705900     -0.156284166945     -0.483556872845   -115.583737049192

 SCS-MP2 energies (F_SING= 1.20000  F_TRIP= 0.62222  F_PARALLEL= 0.33333):
 =========================================================================
 SCS-MP2                               -0.444204260025   -115.544384436372
 SCS-MP2-F12/3*C(DX,FIX)               -0.492771298848   -115.592951475195
 SCS-MP2-F12/3*C(FIX)                  -0.489957933551   -115.590138109898
 SCS-MP2-F12/3C(FIX)                   -0.489970728735   -115.590150905082


  Reference energy                   -115.098826649285
  F12 singles correction               -0.001353527063

 F12 singles corrections added to reference energy

  New reference energy               -115.100180176347

  F12/3C(F) singlet correction         -0.036030357222
  F12/3C(F) triplet correction         -0.004066135786
  F12/3C(F) total correction           -0.040096493007
  MP2-F12/3C(F) singlet pair energy    -0.327272705900
  MP2-F12/3C(F) triplet pair energy    -0.156284166945
  MP2-F12/3C(F) correlation energy     -0.483556872845

 !MP2-F12/3C(F) total energy         -115.583737049192


 **********************************************************************************************************************************
 DATASETS  * FILE   NREC   LENGTH (MB)   RECORD NAMES
              1      20      317.57       500      610      700      900      950      970     1000      129      960     1100   
                                          VAR    BASINP    GEOM    SYMINP    ZMAT    AOBASIS   BASIS     P2S    ABASIS      S 
                                         1400     1410     1200     1210     1080     1600     1650     1300     1700     1380   
                                           T        V       H0       H01     AOSYM     SMH    MOLCAS    ERIS     OPER     JKOP   

              2       7        3.55       700     1000      520     2100     7360     7350     7000   
                                         GEOM     BASIS   MCVARS     RHF    F12ABS    EF12   

 PROGRAMS   *        TOTAL   MP2-F12    HF-SCF       INT
 CPU TIMES  *        22.71     13.62      2.97      5.97
 REAL TIME  *        60.02 SEC
 DISK USED  *         1.13 GB
 **********************************************************************************************************************************


 PROGRAM * CCSD (Closed-shell coupled cluster)     Authors: C. Hampel, H.-J. Werner, 1991, M. Deegan, P.J. Knowles, 1992

                                  CCSD-F12 implementation by  H.-J. Werner, 2007

                   Density fitting integral evaluation by F.R. Manby, 2003,2007, G. Knizia, 2010



 Convergence thresholds:  THRVAR = 1.00D-08  THRDEN = 1.00D-06

 CCSD(T)     terms to be evaluated (factor= 1.000)


 Number of core orbitals:           2 (   2   0 )
 Number of closed-shell orbitals:   7 (   5   2 )
 Number of external orbitals:     169 ( 107  62 )

 Molecular orbitals read from record     2100.2  Type=RHF/CANONICAL (state 1.1)

 MP2-F12 correlation treatment (H.-J. Werner, 2006)
 ==================================================

 Using MP2-F12 with ansatz 3C(FIX)

 Using projected zeroth-order Hamiltonian (+Z)

 FOCKRIB=T FOCKRIC=T FOCKRIP=T CABSP=T CABSA=T CABSK=T CABSF=T GBC=F EBC=F DMAT=T NOFIK=T NOPAO=1 SOLVE=-1  USEPAO=0
 EXCH_A= T EXCH_B= F EXCH_C= F EXCH_P= F

 Geminal basis:    OPTFULL  GEM_TYPE=SLATER  BETA=1.0  NGEM=6

 Optimizing Gaussian exponents for each gem_beta

 Geminal optimization for beta= 1.0000
 Weight function:   m=0, omega= 1.4646

 Augmented Hessian optimization of geminal fit. Trust ratio= 0.40000
 Convergence reached after   2 iterations. Final gradient= 8.66D-16, Step= 4.23D-06, Delta= 1.28D-09

 Alpha:                 0.19532     0.81920     2.85917     9.50073    35.69989   197.79328
 Coeff:                 0.27070     0.30552     0.18297     0.10986     0.06810     0.04224


 Symmetry turned off. Reference energy:       -115.098826649285

 All pairs explicitly correlated. Number of r12-pairs:           28

 Excluding core orbitals from MO domains

 AO(A)-basis ORBITAL           loaded. Number of functions:     178
 RI(R)-basis CC-PVTZ-F12/OPTRI loaded. Number of functions:     314
 DF-basis AUG-CC-PVTZ/JKFIT    loaded. Number of functions:     392

 Screening thresholds:   THRAO=  1.00D-10  THRMO=  1.00D-09  THRPROD=  1.00D-09
                         THRSW=  1.00D-05  THROV=  1.00D-12  THRAOF12= 1.00D-08

 CPU time for Fock operators                      5.51 sec

 Construction of ABS:
 Smallest eigenvalue of S          4.38E-04  (threshold= 1.00E-08)
 Ratio eigmin/eigmax               5.61E-05  (threshold= 1.00E-09)
 Smallest eigenvalue of S kept     4.38E-04  (threshold= 4.38E-04, 0 functions deleted, 314 kept)

 Construction of CABS:
 Smallest eigenvalue of S          7.26E-07  (threshold= 1.00E-08)
 Ratio eigmin/eigmax               7.26E-07  (threshold= 1.00E-09)
 Smallest eigenvalue of S kept     7.26E-07  (threshold= 7.26E-07, 0 functions deleted, 314 kept)

 CPU time for CABS singles                        0.04 sec

 CABS-singles contribution of  -0.00135353 patched into reference energy.
 New reference energy        -115.10018018

 AO(A)-basis ORBITAL           loaded. Number of functions:     178
 RI(R)-basis CC-PVTZ-F12/OPTRI loaded. Number of functions:     314
 DF-basis AUG-CC-PVTZ/MP2FIT   loaded. Number of functions:     396

 Screening thresholds:   THRAO=  1.00D-10  THRMO=  1.00D-09  THRPROD=  1.00D-09
                         THRSW=  1.00D-05  THROV=  1.00D-12  THRAOF12= 1.00D-08

 CPU time for 3-index integral evaluation         3.50 sec
 CPU time for first  half transformation          0.20 sec (12345.3 MFLOP/sec)
 CPU time for sorting                             0.01 sec
 CPU time for fitting                             0.02 sec (56971.3 MFLOP/sec)
 CPU time for tilde quantities                    0.03 sec (50348.4 MFLOP/sec)
 CPU time for assembly                            0.19 sec (65018.9 MFLOP/sec)
 CPU time for tranop_f12                          0.26 sec (61000.9 MFLOP/sec)
 CPU time for f12 integrals (total)               7.14 sec, Elapsed time:      7.54 sec
 CPU time for f12 matrices (total)                0.11 sec, Elapsed time:      0.15 sec

 Diagonal F12 approximation with fixed coefficients:  TSING= 0.500,  TTRIP= 0.250 (scaled by -1/beta)

 DF-MP2-F12 energy corrections:
 ==============================
 Approx.                                    Singlet             Triplet             Total
 DF-MP2-F12/3*C(DX,FIX)                -0.038288654294     -0.004211764827     -0.042500419121
 DF-MP2-F12/3*C(FIX)                   -0.036090335556     -0.003929899596     -0.040020235151
 DF-MP2-F12/3C(FIX)                    -0.036033065084     -0.004064843040     -0.040097908124

 DF-MP2-F12 correlation energies:
 ================================
 Approx.                                    Singlet             Triplet             Ecorr            Total Energy
 DF-MP2                                -0.291059103526     -0.152334775430     -0.443393878956   -115.543574055303
 DF-MP2-F12/3*C(DX,FIX)                -0.329347757819     -0.156546540258     -0.485894298077   -115.586074474424
 DF-MP2-F12/3*C(FIX)                   -0.327149439081     -0.156264675026     -0.483414114107   -115.583594290454
 DF-MP2-F12/3C(FIX)                    -0.327092168610     -0.156399618470     -0.483491787080   -115.583671963427

 SCS-DF-MP2 energies (F_SING= 1.20000  F_TRIP= 0.62222  F_PARALLEL= 0.33333):
 ============================================================================
 SCS-DF-MP2                            -0.444057006721   -115.544237183068
 SCS-DF-MP2-F12/3*C(DX,FIX)            -0.492624045544   -115.592804221891
 SCS-DF-MP2-F12/3*C(FIX)               -0.489810680247   -115.589990856594
 SCS-DF-MP2-F12/3C(FIX)                -0.489825920491   -115.590006096838

 Symmetry restored.
 Symmetry transformation completed.

 Number of N-1 electron functions:               7
 Number of N-2 electron functions:              28
 Number of singly external CSFs:               659
 Number of doubly external CSFs:            355020
 Total number of CSFs:                      355680

 Length of J-op  integral file:             103.62 MB
 Length of K-op  integral file:             127.95 MB
 Length of 3-ext integral record:             0.00 MB

 Memory could be reduced to 24.20 Mwords without degradation in triples

 Integral transformation finished. Total CPU:   1.28 sec, npass=  1  Memory used:   7.45 MW

 Reference energy:                   -115.10018018

 Adding F12 terms to K(Cij), methodcc=6,  factor= 1.0

 ITER.      SQ.NORM     CORR.ENERGY   TOTAL ENERGY   ENERGY CHANGE        DEN1      VAR(S)    VAR(P)  DIIS     TIME  TIME/IT
   1      1.11760175    -0.45280011  -115.55298029    -0.00933973     0.00165554  0.15D-02  0.19D-02  1  1    14.96     0.87
   2      1.12500957    -0.45316325  -115.55334342    -0.00036313    -0.00904256  0.24D-04  0.23D-03  2  2    15.83     0.92
   3      1.12773838    -0.45334072  -115.55352090    -0.00017747    -0.00186480  0.15D-04  0.13D-04  3  3    16.64     0.92
   4      1.12868516    -0.45335862  -115.55353880    -0.00001790    -0.00059962  0.87D-06  0.12D-05  4  4    17.51     0.93
   5      1.12884092    -0.45336017  -115.55354034    -0.00000155    -0.00003791  0.23D-06  0.10D-06  5  5    18.34     0.93
   6      1.12888367    -0.45335781  -115.55353799     0.00000236    -0.00000425  0.36D-07  0.96D-08  6  6    19.20     0.94
   7      1.12889489    -0.45335693  -115.55353711     0.00000088    -0.00000300  0.40D-08  0.14D-08  6  1    20.03     0.94
   8      1.12889670    -0.45335700  -115.55353717    -0.00000006     0.00000034  0.68D-09  0.20D-09  6  3    20.90     0.94

 Norm of t1 vector:      0.05000588      S-energy:    -0.00000037      T1 diagnostic:  0.00945022
                                                                       D1 diagnostic:  0.02001927

 Adding energy correction from Wij-K(Fij), methodcc=6  factor= 1.0

  CCSD correlation energy              -0.453356996870
  MP2-F12 correction (uncoupled)       -0.038546865766
  C*T doubles correction               -0.001164389373
  f12b correction                       0.007099066461


 Total CPU time for triples:     12.27 sec


 RESULTS
 =======

  Reference energy                   -115.098826649285
  F12 singles correction               -0.001353527063

 F12 singles corrections added to reference energy

  New reference energy               -115.100180176347

  F12a singlet correction              -0.035793636962
  F12a triplet correction              -0.003917618176
  F12a total correction                -0.039711255139

 F12a corrections for ansatz F12/3C(FIX) added to CCSD energy

  CCSD-F12a singlet pair energy        -0.351173043133
  CCSD-F12a triplet pair energy        -0.141894842632
  CCSD-F12a correlation energy         -0.493068252009

  Triples (T) contribution             -0.016008315082
  Total correlation energy             -0.509076567091

  CCSD-F12a total energy             -115.593248428356
  CCSD[T]-F12a energy                -115.609809621145
  CCSD-T-F12a energy                 -115.609013207633
 !CCSD(T)-F12a total energy          -115.609256743438

 F12b corrections for ansatz F12/3C(FIX) added to CCSD(T)-F12a energy

  CCSD-F12b singlet pair energy        -0.344536027776
  CCSD-F12b triplet pair energy        -0.141432791527
  CCSD-F12b correlation energy         -0.485969185547

  Triples (T) contribution             -0.016008315082
  Total correlation energy             -0.501977500629

  CCSD-F12b total energy             -115.586149361895
  CCSD[T]-F12b energy                -115.602710554683
  CCSD-T-F12b energy                 -115.601914141171
 !CCSD(T)-F12b total energy          -115.602157676977

 Timing summary (sec):

 STEP                 CPU(USER)    SYS     CPU(TOT)    WALL
 Transformation          1.29      0.16      1.45      1.45
 CCSD iterations         6.75      0.76      7.51      7.57
 Triples                12.27      0.48     12.75     12.78
 MP2-F12                12.86      0.58     13.44     16.34
 F12b energy             0.68      0.06      0.74      0.75

 Program statistics:

 Available memory in ccsd:               499999650
 Min. memory needed in ccsd:               1149135
 Max. memory used in ccsd:                 1443104
 Max. memory used in cckext:               1888566 ( 9 integral passes)



 **********************************************************************************************************************************
 DATASETS  * FILE   NREC   LENGTH (MB)   RECORD NAMES
              1      20      386.13       500      610      700      900      950      970     1000      129      960     1100   
                                          VAR    BASINP    GEOM    SYMINP    ZMAT    AOBASIS   BASIS     P2S    ABASIS      S 
                                         1400     1410     1200     1210     1080     1600     1650     1300     1700     1380   
                                           T        V       H0       H01     AOSYM     SMH    MOLCAS    ERIS     OPER     JKOP   

              2       7        3.55       700     1000      520     2100     7360     7350     7000   
                                         GEOM     BASIS   MCVARS     RHF    F12ABS    EF12   

 PROGRAMS   *        TOTAL   CCSD(T)   MP2-F12    HF-SCF       INT
 CPU TIMES  *        56.59     33.88     13.62      2.97      5.97
 REAL TIME  *        99.02 SEC
 DISK USED  *         1.13 GB
 **********************************************************************************************************************************
 SETTING XXX            =    "MMM"
 SETTING POINT          =        54.00000000                                  

 *** ### CH3OH


 XXX       RCO          ROH          RCH1         RCH2         RCH3           ACOH           AOCH1          AOCH2          AOCH3         AHH1           AHH2           AHH3            ENERGY       POINT
 "MMM"   1.42077677   0.96013932   1.09171752   1.08440070   1.09171752   108.87930637   111.65221523   107.18733878   111.65221523   61.43364279   180.00000000   298.56635721   -115.60925674   54.0000
                                                  

 CCSD(T)-F12/cc-pVTZ-F12 energy=   -115.602157676977

     CCSD(T)-F12         MP2-F12          HF-SCF
   -115.60215768   -115.58373705   -115.09882665
 **********************************************************************************************************************************
 Molpro calculation terminated
