
 Primary working directories    : /tmpdir/job/2955611.undefined/molpro.GrtbcFSsB3
 Secondary working directories  : /tmpdir/job/2955611.undefined/molpro.GrtbcFSsB3
 Wavefunction directory         : /home/zcaposm/wfu/
 Main file repository           : /tmpdir/job/2955611.undefined/molpro.GrtbcFSsB3/

 id        : uclcc

 Nodes                         nprocs
 node-d00a-043.myriad.ucl.ac.uk    1

 Using customized tuning parameters: mindgm=1; mindgv=20; mindgc=4; mindgr=1; noblas=0; minvec=7
 default implementation of scratch files=df  


 Variables initialized (945), CPU time= 0.00 sec
 ***,Methanol Ground State Energy with CCSD(T)-F12 and cc-pVTZ-F12
 memory,500,m;
 
 geometry={angstrom
 c
 o , 1, rco
 h , 2, roh, 1, acoh
 h1, 1, rch1, 2, aoch1  3  ahh1
 h2, 1, rch2, 2, aoch2, 3, ahh2
 h3, 1, rch3, 2, aoch3, 3, ahh3
 }
 
                                                ! Specify the initial values of the internal coordinates (in Angstroms and degrees)
 
 rco= 1.42077677
 roh= 0.96013932
 rch1= 1.091717515605
 rch2= 1.10940070258
 rch3= 1.091717515605
 acoh= 108.12930637
 aoch1= 111.6522152299
 aoch2= 107.18733878260001
 aoch3= 111.6522152299
 ahh1=61.43364279
 ahh2=180.0
 ahh3=298.56635721
 
                                                                                 ! Use the cc-pVTZ-F12 basis set
 basis=cc-pVTZ-F12
 
 hf
 
                                                                                 ! Use explicitly correlated F12 methods
                                                                            ! First, MP2-F12 (useful for initial electronic energy)
 {mp2-f12}
 
                                                                        ! If desired, perform CCSD(T)-F12 for more accurate results
 {ccsd(t)-f12}
 
                                                                                 ! Output the energy
 xxx = "mmm"
 point = 46
 text ### CH3OH
 table,xxx,rco,roh,rch1,rch2,rch3,acoh,aoch1,aoch2,aoch3,ahh1,ahh2,ahh3,energy,point
 DIGITS, 0, 8, 8, 8, 8, 8, 8, 8, 8, 8,  8,  8,  8, 8, 4
 save,CH3OH_MEP_MP2_46.dat,new
 
 Commands  initialized (802), CPU time= 0.01 sec, 659 directives.
 Default parameters read. Elapsed time= 0.11 sec

 Checking input...
 Passed
1


                                         ***  PROGRAM SYSTEM MOLPRO  ***
                                       Copyright, TTI GmbH Stuttgart, 2015
                                    Version 2020.1 linked Oct  6 2020 12:04:11


 **********************************************************************************************************************************
 LABEL *   Methanol Ground State Energy with CCSD(T)-F12 and cc-pVTZ-F12                 
  64 bit serial version                                                                  DATE: 08-Oct-24          TIME: 17:15:52  
 **********************************************************************************************************************************

 SHA1:             8c27446f6450a7499e38f603e13c65f775101d37
 **********************************************************************************************************************************

 Memory per process:       500 MW
 Total memory per node:    500 MW

 GA preallocation disabled
 GA check disabled

 Variable memory set to 500.0 MW

 SETTING RCO            =         1.42077677                                  
 SETTING ROH            =         0.96013932                                  
 SETTING RCH1           =         1.09171752                                  
 SETTING RCH2           =         1.10940070                                  
 SETTING RCH3           =         1.09171752                                  
 SETTING ACOH           =       108.12930637                                  
 SETTING AOCH1          =       111.65221523                                  
 SETTING AOCH2          =       107.18733878                                  
 SETTING AOCH3          =       111.65221523                                  
 SETTING AHH1           =        61.43364279                                  
 SETTING AHH2           =       180.00000000                                  
 SETTING AHH3           =       298.56635721                                  
 SETTING BASIS          =    CC-PVTZ-F12


 Recomputing integrals since basis changed


 Using spherical harmonics

 Library entry C      S cc-pVTZ-F12          selected for orbital group  1
 Library entry C      P cc-pVTZ-F12          selected for orbital group  1
 Library entry C      D cc-pVTZ-F12          selected for orbital group  1
 Library entry C      F cc-pVTZ-F12          selected for orbital group  1
 Library entry O      S cc-pVTZ-F12          selected for orbital group  2
 Library entry O      P cc-pVTZ-F12          selected for orbital group  2
 Library entry O      D cc-pVTZ-F12          selected for orbital group  2
 Library entry O      F cc-pVTZ-F12          selected for orbital group  2
 Library entry H      S cc-pVTZ-F12          selected for orbital group  3
 Library entry H      P cc-pVTZ-F12          selected for orbital group  3
 Library entry H      D cc-pVTZ-F12          selected for orbital group  3


 PROGRAM * SEWARD (Integral evaluation for generally contracted gaussian basis sets)     Author: Roland Lindh, 1990

 Geometry written to block  1 of record 700

 Orientation using atomic masses  
 Molecule type: Asymmetric top
 Symmetry elements: X
 Rotational constants:      23.8822599     24.7844393    127.2290402 GHz  (calculated with average atomic masses)

 Point group  Cs  



 ATOMIC COORDINATES

 NR  ATOM    CHARGE       X              Y              Z

   1  C       6.00    0.000000000    0.029520000   -1.376015657
   2  O       8.00    0.000000000   -0.123445556    1.304502329
   3  H       1.00    0.000000000    1.565915753    1.966398861
   4  H1      1.00    1.684053272    0.988292165   -2.083747166
   5  H3      1.00   -1.684053272    0.988292165   -2.083747166
   6  H2      1.00    0.000000000   -1.934775300   -2.108615919

 Bond lengths in Bohr (Angstrom)

 1-2  2.684878979  1-4  2.063047110  1-5  2.063047110  1-6  2.096463490  2-3  1.814400356
     ( 1.420776770)     ( 1.091717516)     ( 1.091717516)     ( 1.109400703)     ( 0.960139320)

 Bond angles

  1-2-3  108.12930637   2-1-4  111.65221523   2-1-5  111.65221523   2-1-6  107.18733878

  4-1-5  109.43105099   4-1-6  108.39459424   5-1-6  108.39459424

 NUCLEAR CHARGE:                   18
 NUMBER OF PRIMITIVE AOS:         228
 NUMBER OF SYMMETRY AOS:          206
 NUMBER OF CONTRACTIONS:          178   (  114A'  +   64A"  )
 NUMBER OF INNER CORE ORBITALS:     0   (    0A'  +    0A"  )
 NUMBER OF OUTER CORE ORBITALS:     2   (    2A'  +    0A"  )
 NUMBER OF VALENCE ORBITALS:       12   (    9A'  +    3A"  )


 NUCLEAR REPULSION ENERGY   40.25225124

 Eigenvalues of metric

         1 0.900E-04 0.184E-03 0.320E-03 0.461E-03 0.493E-03 0.566E-03 0.617E-03 0.623E-03
         2 0.324E-03 0.570E-03 0.686E-03 0.179E-02 0.341E-02 0.494E-02 0.664E-02 0.872E-02


 Contracted 2-electron integrals neglected if value below      1.0D-11
 AO integral compression algorithm  1   Integral accuracy      1.0D-11

     331.612 MB (compressed) written to integral file ( 53.5%)


 NUMBER OF SORTED TWO-ELECTRON INTEGRALS:   64554730.     BUFFER LENGTH:  32768
 NUMBER OF SEGMENTS:   5  SEGMENT LENGTH:   15997996      RECORD LENGTH: 524288

 Memory used in sort:      16.56 MW

 SORT1 READ    77497885. AND WROTE    63550500. INTEGRALS IN    184 RECORDS. CPU TIME:     1.47 SEC, REAL TIME:    44.18 SEC
 SORT2 READ    63550500. AND WROTE    64554730. INTEGRALS IN   1265 RECORDS. CPU TIME:     1.28 SEC, REAL TIME:   105.04 SEC

 FILE SIZES:   FILE 1:   362.5 MBYTE,  FILE 4:   771.8 MBYTE,   TOTAL:   1134.3 MBYTE

 OPERATOR DM      FOR CENTER  0  COORDINATES:    0.000000    0.000000    0.000000


 **********************************************************************************************************************************
 DATASETS  * FILE   NREC   LENGTH (MB)   RECORD NAMES
              1      19      311.76       500      610      700      900      950      970     1000      129      960     1100   
                                          VAR    BASINP    GEOM    SYMINP    ZMAT    AOBASIS   BASIS     P2S    ABASIS      S 
                                         1400     1410     1200     1210     1080     1600     1650     1300     1700   
                                           T        V       H0       H01     AOSYM     SMH    MOLCAS    ERIS     OPER   

 PROGRAMS   *        TOTAL       INT
 CPU TIMES  *         6.43      6.32
 REAL TIME  *       185.94 SEC
 DISK USED  *         1.13 GB
 **********************************************************************************************************************************


 PROGRAM * RHF-SCF (CLOSED SHELL)       Authors: W. Meyer, H.-J. Werner


 NUMBER OF ELECTRONS:       9+    9-
 CONVERGENCE THRESHOLDS:    1.00E-05 (Density)    1.00E-07 (Energy)
 MAX. NUMBER OF ITERATIONS:       60
 INTERPOLATION TYPE:            DIIS
 INTERPOLATION STEPS:              2 (START)      1 (STEP)
 LEVEL SHIFTS:                  0.00 (CLOSED)  0.00 (OPEN) 



 Orbital guess generated from atomic densities. Full valence occupancy:   11   3

 Molecular orbital dump at record        2100.2

 Initial occupancy:   7   2

 ITERATION    DDIFF          GRAD             ENERGY        2-EL.EN.            DIPOLE MOMENTS         DIIS   ORB.
    1      0.000D+00      0.000D+00      -115.06179224    164.296519    0.00000    0.89957   -0.47620    0    start
    2      0.000D+00      0.669D-02      -115.09010436    161.733952    0.00000    0.50113   -0.29806    1    diag
    3      0.652D-02      0.367D-02      -115.09766339    162.990799    0.00000    0.60574   -0.39163    2    diag
    4      0.223D-02      0.717D-03      -115.09819465    162.814981    0.00000    0.60182   -0.38681    3    diag
    5      0.593D-03      0.144D-03      -115.09822893    162.827345    0.00000    0.59833   -0.39142    4    diag
    6      0.166D-03      0.268D-04      -115.09823048    162.824523    0.00000    0.59857   -0.39216    5    diag
    7      0.477D-04      0.561D-05      -115.09823055    162.824500    0.00000    0.59841   -0.39241    6    diag
    8      0.120D-04      0.132D-05      -115.09823055    162.824672    0.00000    0.59840   -0.39244    7    diag
    9      0.224D-05      0.358D-06      -115.09823055    162.824563    0.00000    0.59838   -0.39244    0    orth

 Final occupancy:   7   2

 !RHF STATE  1.1 Energy              -115.098230552218
 Nuclear energy                        40.25225124
 One-electron energy                 -236.76276316
 Two-electron energy                   81.41228137
 Virial quotient                       -1.00132814
 !RHF STATE  1.1 Dipole moment          0.00000000     0.59838170    -0.39243751
 Dipole moment /Debye                   0.00000000     1.52083495    -0.99741134

 Orbital energies:

         1.1          2.1          3.1          4.1          5.1          6.1          7.1          8.1          9.1
    -20.556756   -11.272870    -1.357222    -0.923521    -0.690883    -0.591350    -0.502023     0.054580     0.065134

         1.2          2.2          3.2          4.2
     -0.621965    -0.452510     0.073801     0.181454


 HOMO      2.2    -0.452510 =     -12.3134eV
 LUMO      8.1     0.054580 =       1.4852eV
 LUMO-HOMO         0.507090 =      13.7986eV


 **********************************************************************************************************************************
 DATASETS  * FILE   NREC   LENGTH (MB)   RECORD NAMES
              1      19      311.76       500      610      700      900      950      970     1000      129      960     1100   
                                          VAR    BASINP    GEOM    SYMINP    ZMAT    AOBASIS   BASIS     P2S    ABASIS      S 
                                         1400     1410     1200     1210     1080     1600     1650     1300     1700   
                                           T        V       H0       H01     AOSYM     SMH    MOLCAS    ERIS     OPER   

              2       4        3.18       700     1000      520     2100   
                                         GEOM     BASIS   MCVARS     RHF  

 PROGRAMS   *        TOTAL    HF-SCF       INT
 CPU TIMES  *         9.50      3.06      6.32
 REAL TIME  *       200.57 SEC
 DISK USED  *         1.13 GB
 **********************************************************************************************************************************


 PROGRAM * MP2 (Closed-shell)     Authors: C. Hampel, H.-J. Werner, 1991, M. Deegan, P.J. Knowles, 1992

                                   MP2-F12 implementation by H.-J. Werner, 2007

                   Density fitting integral evaluation by F.R. Manby, 2003,2007, G. Knizia, 2010


 Basis set AUG-CC-PVTZ/JKFIT generated.  Number of basis functions:   392 
 Basis set CC-PVTZ-F12/OPTRI generated.  Number of basis functions:   314 
 Basis set AUG-CC-PVTZ/MP2FIT generated. Number of basis functions:   396 

 Convergence thresholds:  THRVAR = 1.00D-08  THRDEN = 1.00D-06

 Number of core orbitals:           2 (   2   0 )
 Number of closed-shell orbitals:   7 (   5   2 )
 Number of external orbitals:     169 ( 107  62 )

 Molecular orbitals read from record     2100.2  Type=RHF/CANONICAL (state 1.1)

 MP2-F12 correlation treatment (H.-J. Werner, 2006)
 ==================================================

 Using MP2-F12 with ansatz 3C(FIX)

 Using projected zeroth-order Hamiltonian (+Z)

 FOCKRIB=T FOCKRIC=T FOCKRIP=T CABSP=T CABSA=T CABSK=T CABSF=T GBC=F EBC=F DMAT=T NOFIK=T NOPAO=1 SOLVE=-1  USEPAO=0
 EXCH_A= T EXCH_B= F EXCH_C= F EXCH_P= F

 Geminal basis:    OPTFULL  GEM_TYPE=SLATER  BETA=1.0  NGEM=6

 Optimizing Gaussian exponents for each gem_beta

 Geminal optimization for beta= 1.0000
 Weight function:   m=0, omega= 1.4646

 Augmented Hessian optimization of geminal fit. Trust ratio= 0.40000
 Convergence reached after   2 iterations. Final gradient= 8.66D-16, Step= 4.23D-06, Delta= 1.28D-09

 Alpha:                 0.19532     0.81920     2.85917     9.50073    35.69989   197.79328
 Coeff:                 0.27070     0.30552     0.18297     0.10986     0.06810     0.04224


 Symmetry turned off. Reference energy:       -115.098230552218

 All pairs explicitly correlated. Number of r12-pairs:           28

 Excluding core orbitals from MO domains

 AO(A)-basis ORBITAL           loaded. Number of functions:     178
 RI(R)-basis CC-PVTZ-F12/OPTRI loaded. Number of functions:     314
 DF-basis AUG-CC-PVTZ/JKFIT    loaded. Number of functions:     392

 Screening thresholds:   THRAO=  1.00D-10  THRMO=  1.00D-09  THRPROD=  1.00D-09
                         THRSW=  1.00D-05  THROV=  1.00D-12  THRAOF12= 1.00D-08

 CPU time for Fock operators                      5.51 sec

 Construction of ABS:
 Smallest eigenvalue of S          4.43E-04  (threshold= 1.00E-08)
 Ratio eigmin/eigmax               5.68E-05  (threshold= 1.00E-09)
 Smallest eigenvalue of S kept     4.43E-04  (threshold= 4.43E-04, 0 functions deleted, 314 kept)

 Construction of CABS:
 Smallest eigenvalue of S          7.61E-07  (threshold= 1.00E-08)
 Ratio eigmin/eigmax               7.61E-07  (threshold= 1.00E-09)
 Smallest eigenvalue of S kept     7.61E-07  (threshold= 7.61E-07, 0 functions deleted, 314 kept)

 CPU time for CABS singles                        0.04 sec

 CABS-singles contribution of  -0.00134568 patched into reference energy.
 New reference energy        -115.09957623

 AO(A)-basis ORBITAL           loaded. Number of functions:     178
 RI(R)-basis CC-PVTZ-F12/OPTRI loaded. Number of functions:     314
 DF-basis AUG-CC-PVTZ/MP2FIT   loaded. Number of functions:     396

 Screening thresholds:   THRAO=  1.00D-10  THRMO=  1.00D-09  THRPROD=  1.00D-09
                         THRSW=  1.00D-05  THROV=  1.00D-12  THRAOF12= 1.00D-08

 CPU time for 3-index integral evaluation         3.52 sec
 CPU time for first  half transformation          0.23 sec (10735.0 MFLOP/sec)
 CPU time for second half transformation          0.01 sec ( 6217.0 MFLOP/sec)
 CPU time for fitting                             0.02 sec (56971.3 MFLOP/sec)
 CPU time for tilde quantities                    0.03 sec (50348.4 MFLOP/sec)
 CPU time for assembly                            0.19 sec (65018.9 MFLOP/sec)
 CPU time for tranop_f12                          0.29 sec (54690.4 MFLOP/sec)
 CPU time for f12 integrals (total)               7.32 sec, Elapsed time:      7.71 sec
 CPU time for f12 matrices (total)                0.11 sec, Elapsed time:      0.14 sec

 Diagonal F12 approximation with fixed coefficients:  TSING= 0.500,  TTRIP= 0.250 (scaled by -1/beta)

 DF-MP2-F12 energy corrections:
 ==============================
 Approx.                                    Singlet             Triplet             Total
 DF-MP2-F12/3*C(DX,FIX)                -0.038238881796     -0.004206550525     -0.042445432320
 DF-MP2-F12/3*C(FIX)                   -0.036051078188     -0.003926216665     -0.039977294854
 DF-MP2-F12/3C(FIX)                    -0.035994276034     -0.004061437067     -0.040055713101

 DF-MP2-F12 correlation energies:
 ================================
 Approx.                                    Singlet             Triplet             Ecorr            Total Energy
 DF-MP2                                -0.291297693082     -0.152366767109     -0.443664460190   -115.543240689408
 DF-MP2-F12/3*C(DX,FIX)                -0.329536574877     -0.156573317633     -0.486109892511   -115.585686121728
 DF-MP2-F12/3*C(FIX)                   -0.327348771270     -0.156292983774     -0.483641755044   -115.583217984261
 DF-MP2-F12/3C(FIX)                    -0.327291969116     -0.156428204175     -0.483720173291   -115.583296402509

 SCS-DF-MP2 energies (F_SING= 1.20000  F_TRIP= 0.62222  F_PARALLEL= 0.33333):
 ============================================================================
 SCS-DF-MP2                            -0.444363220121   -115.543939449338
 SCS-DF-MP2-F12/3*C(DX,FIX)            -0.492867287491   -115.592443516709
 SCS-DF-MP2-F12/3*C(FIX)               -0.490067493206   -115.589643722423
 SCS-DF-MP2-F12/3C(FIX)                -0.490083467759   -115.589659696977

 Symmetry restored.
 Symmetry transformation completed.

 Number of N-1 electron functions:               7
 Number of N-2 electron functions:              28
 Number of singly external CSFs:               659
 Number of doubly external CSFs:            355020
 Total number of CSFs:                      355680

 Length of J-op  integral file:             103.49 MB
 Length of K-op  integral file:             127.95 MB

 Integral transformation finished. Total CPU:   0.48 sec, npass=  1  Memory used:   0.67 MW

 ITER.      SQ.NORM     CORR.ENERGY   TOTAL ENERGY   ENERGY CHANGE     VAR   MIC
   1      1.00000000    -0.44373115  -115.54330738    -0.44373115  0.00D+00   0
   2      1.11515965    -0.44373115  -115.54330738    -0.00000000  0.58D-15   0

 Solving MP2-F12 equations

   1      1.11512294    -0.48302848  -115.58260470    -0.03929733 -0.37D-04   0
   2      1.11512294    -0.48378544  -115.58336167    -0.00075696 -0.11D-17   0
   3      1.11512294    -0.48378544  -115.58336167     0.00000000  0.46D-19   0

 CPU TIME FOR ITERATIVE MP2:    0.04 SEC


 MP2-F12 energy corrections:
 ===========================
 Approx.                                    Singlet             Triplet             Total
 MP2-F12/3*C(DX,FIX)                   -0.038238881796     -0.004206550525     -0.042445432320
 MP2-F12/3*C(FIX)                      -0.036051078188     -0.003926216665     -0.039977294854
 MP2-F12/3C(FIX)                       -0.035991572120     -0.004062719909     -0.040054292029

 MP2-F12 correlation energies:
 =============================
 Approx.                                    Singlet             Triplet             Ecorr            Total Energy
 MP2                                   -0.291481194566     -0.152249951561     -0.443731146127   -115.543307375344
 MP2-F12/3*C(DX,FIX)                   -0.329720076362     -0.156456502085     -0.486176578447   -115.585752807665
 MP2-F12/3*C(FIX)                      -0.327532272755     -0.156176168226     -0.483708440980   -115.583284670198
 MP2-F12/3C(FIX)                       -0.327472766686     -0.156312671470     -0.483785438156   -115.583361667373

 SCS-MP2 energies (F_SING= 1.20000  F_TRIP= 0.62222  F_PARALLEL= 0.33333):
 =========================================================================
 SCS-MP2                               -0.444510736673   -115.544086965890
 SCS-MP2-F12/3*C(DX,FIX)               -0.493014804043   -115.592591033260
 SCS-MP2-F12/3*C(FIX)                  -0.490215009757   -115.589791238975
 SCS-MP2-F12/3C(FIX)                   -0.490228537827   -115.589804767044


  Reference energy                   -115.098230552218
  F12 singles correction               -0.001345676999

 F12 singles corrections added to reference energy

  New reference energy               -115.099576229217

  F12/3C(F) singlet correction         -0.035991572120
  F12/3C(F) triplet correction         -0.004062719909
  F12/3C(F) total correction           -0.040054292029
  MP2-F12/3C(F) singlet pair energy    -0.327472766686
  MP2-F12/3C(F) triplet pair energy    -0.156312671470
  MP2-F12/3C(F) correlation energy     -0.483785438156

 !MP2-F12/3C(F) total energy         -115.583361667373


 **********************************************************************************************************************************
 DATASETS  * FILE   NREC   LENGTH (MB)   RECORD NAMES
              1      20      317.51       500      610      700      900      950      970     1000      129      960     1100   
                                          VAR    BASINP    GEOM    SYMINP    ZMAT    AOBASIS   BASIS     P2S    ABASIS      S 
                                         1400     1410     1200     1210     1080     1600     1650     1300     1700     1380   
                                           T        V       H0       H01     AOSYM     SMH    MOLCAS    ERIS     OPER     JKOP   

              2       7        3.55       700     1000      520     2100     7360     7350     7000   
                                         GEOM     BASIS   MCVARS     RHF    F12ABS    EF12   

 PROGRAMS   *        TOTAL   MP2-F12    HF-SCF       INT
 CPU TIMES  *        23.22     13.72      3.06      6.32
 REAL TIME  *       216.70 SEC
 DISK USED  *         1.13 GB
 **********************************************************************************************************************************


 PROGRAM * CCSD (Closed-shell coupled cluster)     Authors: C. Hampel, H.-J. Werner, 1991, M. Deegan, P.J. Knowles, 1992

                                  CCSD-F12 implementation by  H.-J. Werner, 2007

                   Density fitting integral evaluation by F.R. Manby, 2003,2007, G. Knizia, 2010



 Convergence thresholds:  THRVAR = 1.00D-08  THRDEN = 1.00D-06

 CCSD(T)     terms to be evaluated (factor= 1.000)


 Number of core orbitals:           2 (   2   0 )
 Number of closed-shell orbitals:   7 (   5   2 )
 Number of external orbitals:     169 ( 107  62 )

 Molecular orbitals read from record     2100.2  Type=RHF/CANONICAL (state 1.1)

 MP2-F12 correlation treatment (H.-J. Werner, 2006)
 ==================================================

 Using MP2-F12 with ansatz 3C(FIX)

 Using projected zeroth-order Hamiltonian (+Z)

 FOCKRIB=T FOCKRIC=T FOCKRIP=T CABSP=T CABSA=T CABSK=T CABSF=T GBC=F EBC=F DMAT=T NOFIK=T NOPAO=1 SOLVE=-1  USEPAO=0
 EXCH_A= T EXCH_B= F EXCH_C= F EXCH_P= F

 Geminal basis:    OPTFULL  GEM_TYPE=SLATER  BETA=1.0  NGEM=6

 Optimizing Gaussian exponents for each gem_beta

 Geminal optimization for beta= 1.0000
 Weight function:   m=0, omega= 1.4646

 Augmented Hessian optimization of geminal fit. Trust ratio= 0.40000
 Convergence reached after   2 iterations. Final gradient= 8.66D-16, Step= 4.23D-06, Delta= 1.28D-09

 Alpha:                 0.19532     0.81920     2.85917     9.50073    35.69989   197.79328
 Coeff:                 0.27070     0.30552     0.18297     0.10986     0.06810     0.04224


 Symmetry turned off. Reference energy:       -115.098230552218

 All pairs explicitly correlated. Number of r12-pairs:           28

 Excluding core orbitals from MO domains

 AO(A)-basis ORBITAL           loaded. Number of functions:     178
 RI(R)-basis CC-PVTZ-F12/OPTRI loaded. Number of functions:     314
 DF-basis AUG-CC-PVTZ/JKFIT    loaded. Number of functions:     392

 Screening thresholds:   THRAO=  1.00D-10  THRMO=  1.00D-09  THRPROD=  1.00D-09
                         THRSW=  1.00D-05  THROV=  1.00D-12  THRAOF12= 1.00D-08

 CPU time for Fock operators                      5.52 sec

 Construction of ABS:
 Smallest eigenvalue of S          4.43E-04  (threshold= 1.00E-08)
 Ratio eigmin/eigmax               5.68E-05  (threshold= 1.00E-09)
 Smallest eigenvalue of S kept     4.43E-04  (threshold= 4.43E-04, 0 functions deleted, 314 kept)

 Construction of CABS:
 Smallest eigenvalue of S          7.61E-07  (threshold= 1.00E-08)
 Ratio eigmin/eigmax               7.61E-07  (threshold= 1.00E-09)
 Smallest eigenvalue of S kept     7.61E-07  (threshold= 7.61E-07, 0 functions deleted, 314 kept)

 CPU time for CABS singles                        0.04 sec

 CABS-singles contribution of  -0.00134568 patched into reference energy.
 New reference energy        -115.09957623

 AO(A)-basis ORBITAL           loaded. Number of functions:     178
 RI(R)-basis CC-PVTZ-F12/OPTRI loaded. Number of functions:     314
 DF-basis AUG-CC-PVTZ/MP2FIT   loaded. Number of functions:     396

 Screening thresholds:   THRAO=  1.00D-10  THRMO=  1.00D-09  THRPROD=  1.00D-09
                         THRSW=  1.00D-05  THROV=  1.00D-12  THRAOF12= 1.00D-08

 CPU time for 3-index integral evaluation         3.55 sec
 CPU time for first  half transformation          0.33 sec ( 7482.0 MFLOP/sec)
 CPU time for second half transformation          0.01 sec ( 6217.0 MFLOP/sec)
 CPU time for fitting                             0.02 sec (56971.3 MFLOP/sec)
 CPU time for tilde quantities                    0.02 sec (75522.6 MFLOP/sec)
 CPU time for assembly                            0.23 sec (53711.3 MFLOP/sec)
 CPU time for tranop_f12                          0.27 sec (58741.6 MFLOP/sec)
 CPU time for f12 integrals (total)               7.44 sec, Elapsed time:      7.85 sec
 CPU time for f12 matrices (total)                0.10 sec, Elapsed time:      0.14 sec

 Diagonal F12 approximation with fixed coefficients:  TSING= 0.500,  TTRIP= 0.250 (scaled by -1/beta)

 DF-MP2-F12 energy corrections:
 ==============================
 Approx.                                    Singlet             Triplet             Total
 DF-MP2-F12/3*C(DX,FIX)                -0.038238881796     -0.004206550525     -0.042445432320
 DF-MP2-F12/3*C(FIX)                   -0.036051078188     -0.003926216665     -0.039977294854
 DF-MP2-F12/3C(FIX)                    -0.035994276034     -0.004061437067     -0.040055713101

 DF-MP2-F12 correlation energies:
 ================================
 Approx.                                    Singlet             Triplet             Ecorr            Total Energy
 DF-MP2                                -0.291297693082     -0.152366767109     -0.443664460190   -115.543240689408
 DF-MP2-F12/3*C(DX,FIX)                -0.329536574877     -0.156573317633     -0.486109892511   -115.585686121728
 DF-MP2-F12/3*C(FIX)                   -0.327348771270     -0.156292983774     -0.483641755044   -115.583217984261
 DF-MP2-F12/3C(FIX)                    -0.327291969116     -0.156428204175     -0.483720173291   -115.583296402509

 SCS-DF-MP2 energies (F_SING= 1.20000  F_TRIP= 0.62222  F_PARALLEL= 0.33333):
 ============================================================================
 SCS-DF-MP2                            -0.444363220121   -115.543939449338
 SCS-DF-MP2-F12/3*C(DX,FIX)            -0.492867287491   -115.592443516709
 SCS-DF-MP2-F12/3*C(FIX)               -0.490067493206   -115.589643722423
 SCS-DF-MP2-F12/3C(FIX)                -0.490083467759   -115.589659696977

 Symmetry restored.
 Symmetry transformation completed.

 Number of N-1 electron functions:               7
 Number of N-2 electron functions:              28
 Number of singly external CSFs:               659
 Number of doubly external CSFs:            355020
 Total number of CSFs:                      355680

 Length of J-op  integral file:             103.62 MB
 Length of K-op  integral file:             127.95 MB
 Length of 3-ext integral record:             0.00 MB

 Memory could be reduced to 24.20 Mwords without degradation in triples

 Integral transformation finished. Total CPU:   1.24 sec, npass=  1  Memory used:   7.45 MW

 Reference energy:                   -115.09957623

 Adding F12 terms to K(Cij), methodcc=6,  factor= 1.0

 ITER.      SQ.NORM     CORR.ENERGY   TOTAL ENERGY   ENERGY CHANGE        DEN1      VAR(S)    VAR(P)  DIIS     TIME  TIME/IT
   1      1.11812760    -0.45310739  -115.55268361    -0.00937624     0.00169125  0.15D-02  0.19D-02  1  1    15.29     0.92
   2      1.12562143    -0.45348486  -115.55306109    -0.00037747    -0.00909768  0.24D-04  0.23D-03  2  2    16.18     0.95
   3      1.12840448    -0.45366673  -115.55324296    -0.00018188    -0.00189077  0.15D-04  0.14D-04  3  3    17.07     0.96
   4      1.12937051    -0.45368461  -115.55326084    -0.00001788    -0.00060916  0.86D-06  0.12D-05  4  4    17.93     0.96
   5      1.12952829    -0.45368636  -115.55326259    -0.00000175    -0.00003838  0.23D-06  0.10D-06  5  5    18.82     0.97
   6      1.12957128    -0.45368403  -115.55326026     0.00000233    -0.00000427  0.35D-07  0.98D-08  6  6    19.71     0.98
   7      1.12958239    -0.45368314  -115.55325937     0.00000089    -0.00000302  0.39D-08  0.14D-08  6  1    20.63     0.98
   8      1.12958417    -0.45368320  -115.55325943    -0.00000006     0.00000033  0.67D-09  0.20D-09  6  3    21.52     0.99

 Norm of t1 vector:      0.05024069      S-energy:    -0.00000034      T1 diagnostic:  0.00949460
                                                                       D1 diagnostic:  0.02004691

 Adding energy correction from Wij-K(Fij), methodcc=6  factor= 1.0

  CCSD correlation energy              -0.453683200300
  MP2-F12 correction (uncoupled)       -0.038501978147
  C*T doubles correction               -0.001165881270
  f12b correction                       0.007098495232


 Total CPU time for triples:     13.84 sec


 RESULTS
 =======

  Reference energy                   -115.098230552218
  F12 singles correction               -0.001345676999

 F12 singles corrections added to reference energy

  New reference energy               -115.099576229217

  F12a singlet correction              -0.035753904771
  F12a triplet correction              -0.003913954646
  F12a total correction                -0.039667859417

 F12a corrections for ansatz F12/3C(FIX) added to CCSD energy

  CCSD-F12a singlet pair energy        -0.351501996660
  CCSD-F12a triplet pair energy        -0.141848718967
  CCSD-F12a correlation energy         -0.493351059717

  Triples (T) contribution             -0.016069098917
  Total correlation energy             -0.509420158634

  CCSD-F12a total energy             -115.592927288934
  CCSD[T]-F12a energy                -115.609555498660
  CCSD-T-F12a energy                 -115.608750102405
 !CCSD(T)-F12a total energy          -115.608996387851

 F12b corrections for ansatz F12/3C(FIX) added to CCSD(T)-F12a energy

  CCSD-F12b singlet pair energy        -0.344864917449
  CCSD-F12b triplet pair energy        -0.141387302946
  CCSD-F12b correlation energy         -0.486252564484

  Triples (T) contribution             -0.016069098917
  Total correlation energy             -0.502321663401

  CCSD-F12b total energy             -115.585828793702
  CCSD[T]-F12b energy                -115.602457003428
  CCSD-T-F12b energy                 -115.601651607172
 !CCSD(T)-F12b total energy          -115.601897892619

 Timing summary (sec):

 STEP                 CPU(USER)    SYS     CPU(TOT)    WALL
 Transformation          1.25      0.16      1.41      1.42
 CCSD iterations         7.10      0.80      7.90      7.92
 Triples                13.84      0.53     14.37     14.41
 MP2-F12                13.18      0.58     13.76     13.96
 F12b energy             0.72      0.05      0.77      0.76

 Program statistics:

 Available memory in ccsd:               499999650
 Min. memory needed in ccsd:               1149135
 Max. memory used in ccsd:                 1443104
 Max. memory used in cckext:               1888566 ( 9 integral passes)



 **********************************************************************************************************************************
 DATASETS  * FILE   NREC   LENGTH (MB)   RECORD NAMES
              1      20      386.07       500      610      700      900      950      970     1000      129      960     1100   
                                          VAR    BASINP    GEOM    SYMINP    ZMAT    AOBASIS   BASIS     P2S    ABASIS      S 
                                         1400     1410     1200     1210     1080     1600     1650     1300     1700     1380   
                                           T        V       H0       H01     AOSYM     SMH    MOLCAS    ERIS     OPER     JKOP   

              2       7        3.55       700     1000      520     2100     7360     7350     7000   
                                         GEOM     BASIS   MCVARS     RHF    F12ABS    EF12   

 PROGRAMS   *        TOTAL   CCSD(T)   MP2-F12    HF-SCF       INT
 CPU TIMES  *        59.34     36.11     13.72      3.06      6.32
 REAL TIME  *       255.23 SEC
 DISK USED  *         1.13 GB
 **********************************************************************************************************************************
 SETTING XXX            =    "MMM"
 SETTING POINT          =        46.00000000                                  

 *** ### CH3OH


 XXX       RCO          ROH          RCH1         RCH2         RCH3           ACOH           AOCH1          AOCH2          AOCH3         AHH1           AHH2           AHH3            ENERGY       POINT
 "MMM"   1.42077677   0.96013932   1.09171752   1.10940070   1.09171752   108.12930637   111.65221523   107.18733878   111.65221523   61.43364279   180.00000000   298.56635721   -115.60899639   46.0000
                                                  

 CCSD(T)-F12/cc-pVTZ-F12 energy=   -115.601897892619

     CCSD(T)-F12         MP2-F12          HF-SCF
   -115.60189789   -115.58336167   -115.09823055
 **********************************************************************************************************************************
 Molpro calculation terminated
