
 Primary working directories    : /tmpdir/job/2955608.undefined/molpro.OsjmcdVfr9
 Secondary working directories  : /tmpdir/job/2955608.undefined/molpro.OsjmcdVfr9
 Wavefunction directory         : /home/zcaposm/wfu/
 Main file repository           : /tmpdir/job/2955608.undefined/molpro.OsjmcdVfr9/

 id        : uclcc

 Nodes                         nprocs
 node-d00a-219.myriad.ucl.ac.uk    1

 Using customized tuning parameters: mindgm=1; mindgv=20; mindgc=4; mindgr=1; noblas=0; minvec=7
 default implementation of scratch files=df  


 Variables initialized (945), CPU time= 0.00 sec
 ***,Methanol Ground State Energy with CCSD(T)-F12 and cc-pVTZ-F12
 memory,500,m;
 
 geometry={angstrom
 c
 o , 1, rco
 h , 2, roh, 1, acoh
 h1, 1, rch1, 2, aoch1  3  ahh1
 h2, 1, rch2, 2, aoch2, 3, ahh2
 h3, 1, rch3, 2, aoch3, 3, ahh3
 }
 
                                                ! Specify the initial values of the internal coordinates (in Angstroms and degrees)
 
 rco= 1.42077677
 roh= 0.96013932
 rch1= 1.091717515605
 rch2= 1.06940070258
 rch3= 1.091717515605
 acoh= 108.12930637
 aoch1= 111.6522152299
 aoch2= 107.18733878260001
 aoch3= 111.6522152299
 ahh1=61.43364279
 ahh2=180.0
 ahh3=298.56635721
 
                                                                                 ! Use the cc-pVTZ-F12 basis set
 basis=cc-pVTZ-F12
 
 hf
 
                                                                                 ! Use explicitly correlated F12 methods
                                                                            ! First, MP2-F12 (useful for initial electronic energy)
 {mp2-f12}
 
                                                                        ! If desired, perform CCSD(T)-F12 for more accurate results
 {ccsd(t)-f12}
 
                                                                                 ! Output the energy
 xxx = "mmm"
 point = 43
 text ### CH3OH
 table,xxx,rco,roh,rch1,rch2,rch3,acoh,aoch1,aoch2,aoch3,ahh1,ahh2,ahh3,energy,point
 DIGITS, 0, 8, 8, 8, 8, 8, 8, 8, 8, 8,  8,  8,  8, 8, 4
 save,CH3OH_MEP_MP2_43.dat,new
 
 Commands  initialized (802), CPU time= 0.01 sec, 659 directives.
 Default parameters read. Elapsed time= 0.10 sec

 Checking input...
 Passed
1


                                         ***  PROGRAM SYSTEM MOLPRO  ***
                                       Copyright, TTI GmbH Stuttgart, 2015
                                    Version 2020.1 linked Oct  6 2020 12:04:11


 **********************************************************************************************************************************
 LABEL *   Methanol Ground State Energy with CCSD(T)-F12 and cc-pVTZ-F12                 
  64 bit serial version                                                                  DATE: 08-Oct-24          TIME: 17:15:51  
 **********************************************************************************************************************************

 SHA1:             8c27446f6450a7499e38f603e13c65f775101d37
 **********************************************************************************************************************************

 Memory per process:       500 MW
 Total memory per node:    500 MW

 GA preallocation disabled
 GA check disabled

 Variable memory set to 500.0 MW

 SETTING RCO            =         1.42077677                                  
 SETTING ROH            =         0.96013932                                  
 SETTING RCH1           =         1.09171752                                  
 SETTING RCH2           =         1.06940070                                  
 SETTING RCH3           =         1.09171752                                  
 SETTING ACOH           =       108.12930637                                  
 SETTING AOCH1          =       111.65221523                                  
 SETTING AOCH2          =       107.18733878                                  
 SETTING AOCH3          =       111.65221523                                  
 SETTING AHH1           =        61.43364279                                  
 SETTING AHH2           =       180.00000000                                  
 SETTING AHH3           =       298.56635721                                  
 SETTING BASIS          =    CC-PVTZ-F12


 Recomputing integrals since basis changed


 Using spherical harmonics

 Library entry C      S cc-pVTZ-F12          selected for orbital group  1
 Library entry C      P cc-pVTZ-F12          selected for orbital group  1
 Library entry C      D cc-pVTZ-F12          selected for orbital group  1
 Library entry C      F cc-pVTZ-F12          selected for orbital group  1
 Library entry O      S cc-pVTZ-F12          selected for orbital group  2
 Library entry O      P cc-pVTZ-F12          selected for orbital group  2
 Library entry O      D cc-pVTZ-F12          selected for orbital group  2
 Library entry O      F cc-pVTZ-F12          selected for orbital group  2
 Library entry H      S cc-pVTZ-F12          selected for orbital group  3
 Library entry H      P cc-pVTZ-F12          selected for orbital group  3
 Library entry H      D cc-pVTZ-F12          selected for orbital group  3


 PROGRAM * SEWARD (Integral evaluation for generally contracted gaussian basis sets)     Author: Roland Lindh, 1990

 Geometry written to block  1 of record 700

 Orientation using atomic masses  
 Molecule type: Asymmetric top
 Symmetry elements: X
 Rotational constants:      24.0038968     24.8222489    129.7165356 GHz  (calculated with average atomic masses)

 Point group  Cs  



 ATOMIC COORDINATES

 NR  ATOM    CHARGE       X              Y              Z

   1  C       6.00    0.000000000    0.022603341   -1.376931518
   2  O       8.00    0.000000000   -0.121233268    1.304091825
   3  H       1.00    0.000000000    1.570372225    1.960231679
   4  H1      1.00    1.684053272    0.978959885   -2.087923863
   5  H3      1.00   -1.684053272    0.978959885   -2.087923863
   6  H2      1.00    0.000000000   -1.873262124   -2.076665511

 Bond lengths in Bohr (Angstrom)

 1-2  2.684878979  1-4  2.063047110  1-5  2.063047110  1-6  2.020874445  2-3  1.814400356
     ( 1.420776770)     ( 1.091717516)     ( 1.091717516)     ( 1.069400703)     ( 0.960139320)

 Bond angles

  1-2-3  108.12930637   2-1-4  111.65221523   2-1-5  111.65221523   2-1-6  107.18733878

  4-1-5  109.43105099   4-1-6  108.39459424   5-1-6  108.39459424

 NUCLEAR CHARGE:                   18
 NUMBER OF PRIMITIVE AOS:         228
 NUMBER OF SYMMETRY AOS:          206
 NUMBER OF CONTRACTIONS:          178   (  114A'  +   64A"  )
 NUMBER OF INNER CORE ORBITALS:     0   (    0A'  +    0A"  )
 NUMBER OF OUTER CORE ORBITALS:     2   (    2A'  +    0A"  )
 NUMBER OF VALENCE ORBITALS:       12   (    9A'  +    3A"  )


 NUCLEAR REPULSION ENERGY   40.40314298

 Eigenvalues of metric

         1 0.868E-04 0.183E-03 0.303E-03 0.460E-03 0.493E-03 0.556E-03 0.616E-03 0.620E-03
         2 0.322E-03 0.570E-03 0.686E-03 0.177E-02 0.337E-02 0.494E-02 0.631E-02 0.869E-02


 Contracted 2-electron integrals neglected if value below      1.0D-11
 AO integral compression algorithm  1   Integral accuracy      1.0D-11

     331.874 MB (compressed) written to integral file ( 53.5%)


 NUMBER OF SORTED TWO-ELECTRON INTEGRALS:   64554730.     BUFFER LENGTH:  32768
 NUMBER OF SEGMENTS:   5  SEGMENT LENGTH:   15997996      RECORD LENGTH: 524288

 Memory used in sort:      16.56 MW

 SORT1 READ    77497885. AND WROTE    63557912. INTEGRALS IN    184 RECORDS. CPU TIME:     0.95 SEC, REAL TIME:     5.67 SEC
 SORT2 READ    63557912. AND WROTE    64554730. INTEGRALS IN   1266 RECORDS. CPU TIME:     1.26 SEC, REAL TIME:    17.30 SEC

 FILE SIZES:   FILE 1:   362.8 MBYTE,  FILE 4:   771.8 MBYTE,   TOTAL:   1134.6 MBYTE

 OPERATOR DM      FOR CENTER  0  COORDINATES:    0.000000    0.000000    0.000000


 **********************************************************************************************************************************
 DATASETS  * FILE   NREC   LENGTH (MB)   RECORD NAMES
              1      19      311.97       500      610      700      900      950      970     1000      129      960     1100   
                                          VAR    BASINP    GEOM    SYMINP    ZMAT    AOBASIS   BASIS     P2S    ABASIS      S 
                                         1400     1410     1200     1210     1080     1600     1650     1300     1700   
                                           T        V       H0       H01     AOSYM     SMH    MOLCAS    ERIS     OPER   

 PROGRAMS   *        TOTAL       INT
 CPU TIMES  *         5.86      5.75
 REAL TIME  *        36.58 SEC
 DISK USED  *         1.13 GB
 **********************************************************************************************************************************


 PROGRAM * RHF-SCF (CLOSED SHELL)       Authors: W. Meyer, H.-J. Werner


 NUMBER OF ELECTRONS:       9+    9-
 CONVERGENCE THRESHOLDS:    1.00E-05 (Density)    1.00E-07 (Energy)
 MAX. NUMBER OF ITERATIONS:       60
 INTERPOLATION TYPE:            DIIS
 INTERPOLATION STEPS:              2 (START)      1 (STEP)
 LEVEL SHIFTS:                  0.00 (CLOSED)  0.00 (OPEN) 



 Orbital guess generated from atomic densities. Full valence occupancy:   11   3

 Molecular orbital dump at record        2100.2

 Initial occupancy:   7   2

 ITERATION    DDIFF          GRAD             ENERGY        2-EL.EN.            DIPOLE MOMENTS         DIIS   ORB.
    1      0.000D+00      0.000D+00      -115.06233323    164.599470    0.00000    0.90732   -0.47886    0    start
    2      0.000D+00      0.668D-02      -115.09072060    162.005099    0.00000    0.49388   -0.30695    1    diag
    3      0.653D-02      0.364D-02      -115.09816056    163.272093    0.00000    0.59655   -0.39991    2    diag
    4      0.221D-02      0.723D-03      -115.09869411    163.094965    0.00000    0.59075   -0.39548    3    diag
    5      0.594D-03      0.145D-03      -115.09872866    163.105864    0.00000    0.58650   -0.40043    4    diag
    6      0.165D-03      0.272D-04      -115.09873023    163.104011    0.00000    0.58659   -0.40123    5    diag
    7      0.474D-04      0.585D-05      -115.09873030    163.103415    0.00000    0.58639   -0.40152    6    diag
    8      0.119D-04      0.165D-05      -115.09873030    163.103845    0.00000    0.58637   -0.40155    7    diag
    9      0.251D-05      0.509D-06      -115.09873031    163.103676    0.00000    0.58636   -0.40156    0    orth

 Final occupancy:   7   2

 !RHF STATE  1.1 Energy              -115.098730305012
 Nuclear energy                        40.40314298
 One-electron energy                 -237.05371126
 Two-electron energy                   81.55183797
 Virial quotient                       -1.00081621
 !RHF STATE  1.1 Dipole moment          0.00000000     0.58636027    -0.40155939
 Dipole moment /Debye                   0.00000000     1.49028154    -1.02059532

 Orbital energies:

         1.1          2.1          3.1          4.1          5.1          6.1          7.1          8.1          9.1
    -20.556114   -11.267897    -1.356768    -0.928212    -0.690785    -0.596310    -0.505622     0.054686     0.064933

         1.2          2.2          3.2          4.2
     -0.621340    -0.451969     0.073794     0.181514


 HOMO      2.2    -0.451969 =     -12.2987eV
 LUMO      8.1     0.054686 =       1.4881eV
 LUMO-HOMO         0.506655 =      13.7868eV


 **********************************************************************************************************************************
 DATASETS  * FILE   NREC   LENGTH (MB)   RECORD NAMES
              1      19      311.97       500      610      700      900      950      970     1000      129      960     1100   
                                          VAR    BASINP    GEOM    SYMINP    ZMAT    AOBASIS   BASIS     P2S    ABASIS      S 
                                         1400     1410     1200     1210     1080     1600     1650     1300     1700   
                                           T        V       H0       H01     AOSYM     SMH    MOLCAS    ERIS     OPER   

              2       4        3.18       700     1000      520     2100   
                                         GEOM     BASIS   MCVARS     RHF  

 PROGRAMS   *        TOTAL    HF-SCF       INT
 CPU TIMES  *         8.88      3.02      5.75
 REAL TIME  *        41.47 SEC
 DISK USED  *         1.13 GB
 **********************************************************************************************************************************


 PROGRAM * MP2 (Closed-shell)     Authors: C. Hampel, H.-J. Werner, 1991, M. Deegan, P.J. Knowles, 1992

                                   MP2-F12 implementation by H.-J. Werner, 2007

                   Density fitting integral evaluation by F.R. Manby, 2003,2007, G. Knizia, 2010


 Basis set AUG-CC-PVTZ/JKFIT generated.  Number of basis functions:   392 
 Basis set CC-PVTZ-F12/OPTRI generated.  Number of basis functions:   314 
 Basis set AUG-CC-PVTZ/MP2FIT generated. Number of basis functions:   396 

 Convergence thresholds:  THRVAR = 1.00D-08  THRDEN = 1.00D-06

 Number of core orbitals:           2 (   2   0 )
 Number of closed-shell orbitals:   7 (   5   2 )
 Number of external orbitals:     169 ( 107  62 )

 Molecular orbitals read from record     2100.2  Type=RHF/CANONICAL (state 1.1)

 MP2-F12 correlation treatment (H.-J. Werner, 2006)
 ==================================================

 Using MP2-F12 with ansatz 3C(FIX)

 Using projected zeroth-order Hamiltonian (+Z)

 FOCKRIB=T FOCKRIC=T FOCKRIP=T CABSP=T CABSA=T CABSK=T CABSF=T GBC=F EBC=F DMAT=T NOFIK=T NOPAO=1 SOLVE=-1  USEPAO=0
 EXCH_A= T EXCH_B= F EXCH_C= F EXCH_P= F

 Geminal basis:    OPTFULL  GEM_TYPE=SLATER  BETA=1.0  NGEM=6

 Optimizing Gaussian exponents for each gem_beta

 Geminal optimization for beta= 1.0000
 Weight function:   m=0, omega= 1.4646

 Augmented Hessian optimization of geminal fit. Trust ratio= 0.40000
 Convergence reached after   2 iterations. Final gradient= 8.66D-16, Step= 4.23D-06, Delta= 1.28D-09

 Alpha:                 0.19532     0.81920     2.85917     9.50073    35.69989   197.79328
 Coeff:                 0.27070     0.30552     0.18297     0.10986     0.06810     0.04224


 Symmetry turned off. Reference energy:       -115.098730305013

 All pairs explicitly correlated. Number of r12-pairs:           28

 Excluding core orbitals from MO domains

 AO(A)-basis ORBITAL           loaded. Number of functions:     178
 RI(R)-basis CC-PVTZ-F12/OPTRI loaded. Number of functions:     314
 DF-basis AUG-CC-PVTZ/JKFIT    loaded. Number of functions:     392

 Screening thresholds:   THRAO=  1.00D-10  THRMO=  1.00D-09  THRPROD=  1.00D-09
                         THRSW=  1.00D-05  THROV=  1.00D-12  THRAOF12= 1.00D-08

 CPU time for Fock operators                      5.42 sec

 Construction of ABS:
 Smallest eigenvalue of S          4.28E-04  (threshold= 1.00E-08)
 Ratio eigmin/eigmax               5.45E-05  (threshold= 1.00E-09)
 Smallest eigenvalue of S kept     4.28E-04  (threshold= 4.28E-04, 0 functions deleted, 314 kept)

 Construction of CABS:
 Smallest eigenvalue of S          7.04E-07  (threshold= 1.00E-08)
 Ratio eigmin/eigmax               7.04E-07  (threshold= 1.00E-09)
 Smallest eigenvalue of S kept     7.04E-07  (threshold= 7.04E-07, 0 functions deleted, 314 kept)

 CPU time for CABS singles                        0.04 sec

 CABS-singles contribution of  -0.00135900 patched into reference energy.
 New reference energy        -115.10008931

 AO(A)-basis ORBITAL           loaded. Number of functions:     178
 RI(R)-basis CC-PVTZ-F12/OPTRI loaded. Number of functions:     314
 DF-basis AUG-CC-PVTZ/MP2FIT   loaded. Number of functions:     396

 Screening thresholds:   THRAO=  1.00D-10  THRMO=  1.00D-09  THRPROD=  1.00D-09
                         THRSW=  1.00D-05  THROV=  1.00D-12  THRAOF12= 1.00D-08

 CPU time for 3-index integral evaluation         3.39 sec
 CPU time for first  half transformation          0.33 sec ( 7482.0 MFLOP/sec)
 CPU time for second half transformation          0.03 sec ( 2072.3 MFLOP/sec)
 CPU time for sorting                             0.02 sec
 CPU time for fitting                             0.02 sec (56971.3 MFLOP/sec)
 CPU time for tilde quantities                    0.03 sec (50348.4 MFLOP/sec)
 CPU time for assembly                            0.20 sec (61768.0 MFLOP/sec)
 CPU time for tranop_f12                          0.28 sec (56643.7 MFLOP/sec)
 CPU time for f12 integrals (total)               7.28 sec, Elapsed time:      7.94 sec
 CPU time for f12 matrices (total)                0.11 sec, Elapsed time:      0.15 sec

 Diagonal F12 approximation with fixed coefficients:  TSING= 0.500,  TTRIP= 0.250 (scaled by -1/beta)

 DF-MP2-F12 energy corrections:
 ==============================
 Approx.                                    Singlet             Triplet             Total
 DF-MP2-F12/3*C(DX,FIX)                -0.038316984208     -0.004216304490     -0.042533288698
 DF-MP2-F12/3*C(FIX)                   -0.036111370321     -0.003933671934     -0.040045042255
 DF-MP2-F12/3C(FIX)                    -0.036053901896     -0.004068521825     -0.040122423721

 DF-MP2-F12 correlation energies:
 ================================
 Approx.                                    Singlet             Triplet             Ecorr            Total Energy
 DF-MP2                                -0.290978992882     -0.152361575172     -0.443340568054   -115.543429876937
 DF-MP2-F12/3*C(DX,FIX)                -0.329295977090     -0.156577879662     -0.485873856752   -115.585963165634
 DF-MP2-F12/3*C(FIX)                   -0.327090363203     -0.156295247106     -0.483385610309   -115.583474919191
 DF-MP2-F12/3C(FIX)                    -0.327032894778     -0.156430096997     -0.483462991775   -115.583552300658

 SCS-DF-MP2 energies (F_SING= 1.20000  F_TRIP= 0.62222  F_PARALLEL= 0.33333):
 ============================================================================
 SCS-DF-MP2                            -0.443977549343   -115.544066858226
 SCS-DF-MP2-F12/3*C(DX,FIX)            -0.492581408742   -115.592670717625
 SCS-DF-MP2-F12/3*C(FIX)               -0.489758811821   -115.589848120703
 SCS-DF-MP2-F12/3C(FIX)                -0.489773756309   -115.589863065192

 Symmetry restored.
 Symmetry transformation completed.

 Number of N-1 electron functions:               7
 Number of N-2 electron functions:              28
 Number of singly external CSFs:               659
 Number of doubly external CSFs:            355020
 Total number of CSFs:                      355680

 Length of J-op  integral file:             103.49 MB
 Length of K-op  integral file:             127.95 MB

 Integral transformation finished. Total CPU:   0.49 sec, npass=  1  Memory used:   0.67 MW

 ITER.      SQ.NORM     CORR.ENERGY   TOTAL ENERGY   ENERGY CHANGE     VAR   MIC
   1      1.00000000    -0.44340678  -115.54349609    -0.44340678  0.00D+00   0
   2      1.11448723    -0.44340678  -115.54349609     0.00000000 -0.25D-16   0

 Solving MP2-F12 equations

   1      1.11445122    -0.48277142  -115.58286073    -0.03936464 -0.37D-04   0
   2      1.11445122    -0.48352781  -115.58361712    -0.00075639 -0.14D-18   0
   3      1.11445122    -0.48352781  -115.58361712     0.00000000 -0.15D-18   0

 CPU TIME FOR ITERATIVE MP2:    0.03 SEC


 MP2-F12 energy corrections:
 ===========================
 Approx.                                    Singlet             Triplet             Total
 MP2-F12/3*C(DX,FIX)                   -0.038316984208     -0.004216304490     -0.042533288698
 MP2-F12/3*C(FIX)                      -0.036111370321     -0.003933671934     -0.040045042255
 MP2-F12/3C(FIX)                       -0.036051203765     -0.004069827117     -0.040121030882

 MP2-F12 correlation energies:
 =============================
 Approx.                                    Singlet             Triplet             Ecorr            Total Energy
 MP2                                   -0.291162171195     -0.152244608086     -0.443406779281   -115.543496088164
 MP2-F12/3*C(DX,FIX)                   -0.329479155403     -0.156460912576     -0.485940067979   -115.586029376861
 MP2-F12/3*C(FIX)                      -0.327273541516     -0.156178280020     -0.483451821536   -115.583541130419
 MP2-F12/3C(FIX)                       -0.327213374960     -0.156314435203     -0.483527810163   -115.583617119046

 SCS-MP2 energies (F_SING= 1.20000  F_TRIP= 0.62222  F_PARALLEL= 0.33333):
 =========================================================================
 SCS-MP2                               -0.444124583799   -115.544213892681
 SCS-MP2-F12/3*C(DX,FIX)               -0.492728443197   -115.592817752080
 SCS-MP2-F12/3*C(FIX)                  -0.489905846276   -115.589995155159
 SCS-MP2-F12/3C(FIX)                   -0.489918365189   -115.590007674072


  Reference energy                   -115.098730305013
  F12 singles correction               -0.001359003870

 F12 singles corrections added to reference energy

  New reference energy               -115.100089308883

  F12/3C(F) singlet correction         -0.036051203765
  F12/3C(F) triplet correction         -0.004069827117
  F12/3C(F) total correction           -0.040121030882
  MP2-F12/3C(F) singlet pair energy    -0.327213374960
  MP2-F12/3C(F) triplet pair energy    -0.156314435203
  MP2-F12/3C(F) correlation energy     -0.483527810163

 !MP2-F12/3C(F) total energy         -115.583617119046


 **********************************************************************************************************************************
 DATASETS  * FILE   NREC   LENGTH (MB)   RECORD NAMES
              1      20      317.71       500      610      700      900      950      970     1000      129      960     1100   
                                          VAR    BASINP    GEOM    SYMINP    ZMAT    AOBASIS   BASIS     P2S    ABASIS      S 
                                         1400     1410     1200     1210     1080     1600     1650     1300     1700     1380   
                                           T        V       H0       H01     AOSYM     SMH    MOLCAS    ERIS     OPER     JKOP   

              2       7        3.55       700     1000      520     2100     7360     7350     7000   
                                         GEOM     BASIS   MCVARS     RHF    F12ABS    EF12   

 PROGRAMS   *        TOTAL   MP2-F12    HF-SCF       INT
 CPU TIMES  *        22.45     13.56      3.02      5.75
 REAL TIME  *        56.74 SEC
 DISK USED  *         1.13 GB
 **********************************************************************************************************************************


 PROGRAM * CCSD (Closed-shell coupled cluster)     Authors: C. Hampel, H.-J. Werner, 1991, M. Deegan, P.J. Knowles, 1992

                                  CCSD-F12 implementation by  H.-J. Werner, 2007

                   Density fitting integral evaluation by F.R. Manby, 2003,2007, G. Knizia, 2010



 Convergence thresholds:  THRVAR = 1.00D-08  THRDEN = 1.00D-06

 CCSD(T)     terms to be evaluated (factor= 1.000)


 Number of core orbitals:           2 (   2   0 )
 Number of closed-shell orbitals:   7 (   5   2 )
 Number of external orbitals:     169 ( 107  62 )

 Molecular orbitals read from record     2100.2  Type=RHF/CANONICAL (state 1.1)

 MP2-F12 correlation treatment (H.-J. Werner, 2006)
 ==================================================

 Using MP2-F12 with ansatz 3C(FIX)

 Using projected zeroth-order Hamiltonian (+Z)

 FOCKRIB=T FOCKRIC=T FOCKRIP=T CABSP=T CABSA=T CABSK=T CABSF=T GBC=F EBC=F DMAT=T NOFIK=T NOPAO=1 SOLVE=-1  USEPAO=0
 EXCH_A= T EXCH_B= F EXCH_C= F EXCH_P= F

 Geminal basis:    OPTFULL  GEM_TYPE=SLATER  BETA=1.0  NGEM=6

 Optimizing Gaussian exponents for each gem_beta

 Geminal optimization for beta= 1.0000
 Weight function:   m=0, omega= 1.4646

 Augmented Hessian optimization of geminal fit. Trust ratio= 0.40000
 Convergence reached after   2 iterations. Final gradient= 8.66D-16, Step= 4.23D-06, Delta= 1.28D-09

 Alpha:                 0.19532     0.81920     2.85917     9.50073    35.69989   197.79328
 Coeff:                 0.27070     0.30552     0.18297     0.10986     0.06810     0.04224


 Symmetry turned off. Reference energy:       -115.098730305013

 All pairs explicitly correlated. Number of r12-pairs:           28

 Excluding core orbitals from MO domains

 AO(A)-basis ORBITAL           loaded. Number of functions:     178
 RI(R)-basis CC-PVTZ-F12/OPTRI loaded. Number of functions:     314
 DF-basis AUG-CC-PVTZ/JKFIT    loaded. Number of functions:     392

 Screening thresholds:   THRAO=  1.00D-10  THRMO=  1.00D-09  THRPROD=  1.00D-09
                         THRSW=  1.00D-05  THROV=  1.00D-12  THRAOF12= 1.00D-08

 CPU time for Fock operators                      5.46 sec

 Construction of ABS:
 Smallest eigenvalue of S          4.28E-04  (threshold= 1.00E-08)
 Ratio eigmin/eigmax               5.45E-05  (threshold= 1.00E-09)
 Smallest eigenvalue of S kept     4.28E-04  (threshold= 4.28E-04, 0 functions deleted, 314 kept)

 Construction of CABS:
 Smallest eigenvalue of S          7.04E-07  (threshold= 1.00E-08)
 Ratio eigmin/eigmax               7.04E-07  (threshold= 1.00E-09)
 Smallest eigenvalue of S kept     7.04E-07  (threshold= 7.04E-07, 0 functions deleted, 314 kept)

 CPU time for CABS singles                        0.04 sec

 CABS-singles contribution of  -0.00135900 patched into reference energy.
 New reference energy        -115.10008931

 AO(A)-basis ORBITAL           loaded. Number of functions:     178
 RI(R)-basis CC-PVTZ-F12/OPTRI loaded. Number of functions:     314
 DF-basis AUG-CC-PVTZ/MP2FIT   loaded. Number of functions:     396

 Screening thresholds:   THRAO=  1.00D-10  THRMO=  1.00D-09  THRPROD=  1.00D-09
                         THRSW=  1.00D-05  THROV=  1.00D-12  THRAOF12= 1.00D-08

 CPU time for 3-index integral evaluation         3.36 sec
 CPU time for first  half transformation          0.41 sec ( 6022.1 MFLOP/sec)
 CPU time for second half transformation          0.01 sec ( 6217.0 MFLOP/sec)
 CPU time for sorting                             0.01 sec
 CPU time for fitting                             0.02 sec (56971.3 MFLOP/sec)
 CPU time for tilde quantities                    0.02 sec (75522.6 MFLOP/sec)
 CPU time for assembly                            0.20 sec (61768.0 MFLOP/sec)
 CPU time for tranop_f12                          0.27 sec (58741.6 MFLOP/sec)
 CPU time for f12 integrals (total)               7.27 sec, Elapsed time:      7.70 sec
 CPU time for f12 matrices (total)                0.10 sec, Elapsed time:      0.15 sec

 Diagonal F12 approximation with fixed coefficients:  TSING= 0.500,  TTRIP= 0.250 (scaled by -1/beta)

 DF-MP2-F12 energy corrections:
 ==============================
 Approx.                                    Singlet             Triplet             Total
 DF-MP2-F12/3*C(DX,FIX)                -0.038316984208     -0.004216304490     -0.042533288698
 DF-MP2-F12/3*C(FIX)                   -0.036111370321     -0.003933671934     -0.040045042255
 DF-MP2-F12/3C(FIX)                    -0.036053901896     -0.004068521825     -0.040122423721

 DF-MP2-F12 correlation energies:
 ================================
 Approx.                                    Singlet             Triplet             Ecorr            Total Energy
 DF-MP2                                -0.290978992882     -0.152361575172     -0.443340568054   -115.543429876937
 DF-MP2-F12/3*C(DX,FIX)                -0.329295977090     -0.156577879662     -0.485873856752   -115.585963165634
 DF-MP2-F12/3*C(FIX)                   -0.327090363203     -0.156295247106     -0.483385610309   -115.583474919191
 DF-MP2-F12/3C(FIX)                    -0.327032894778     -0.156430096997     -0.483462991775   -115.583552300658

 SCS-DF-MP2 energies (F_SING= 1.20000  F_TRIP= 0.62222  F_PARALLEL= 0.33333):
 ============================================================================
 SCS-DF-MP2                            -0.443977549343   -115.544066858226
 SCS-DF-MP2-F12/3*C(DX,FIX)            -0.492581408742   -115.592670717625
 SCS-DF-MP2-F12/3*C(FIX)               -0.489758811821   -115.589848120703
 SCS-DF-MP2-F12/3C(FIX)                -0.489773756309   -115.589863065192

 Symmetry restored.
 Symmetry transformation completed.

 Number of N-1 electron functions:               7
 Number of N-2 electron functions:              28
 Number of singly external CSFs:               659
 Number of doubly external CSFs:            355020
 Total number of CSFs:                      355680

 Length of J-op  integral file:             103.62 MB
 Length of K-op  integral file:             127.95 MB
 Length of 3-ext integral record:             0.00 MB

 Memory could be reduced to 24.20 Mwords without degradation in triples

 Integral transformation finished. Total CPU:   1.34 sec, npass=  1  Memory used:   7.45 MW

 Reference energy:                   -115.10008931

 Adding F12 terms to K(Cij), methodcc=6,  factor= 1.0

 ITER.      SQ.NORM     CORR.ENERGY   TOTAL ENERGY   ENERGY CHANGE        DEN1      VAR(S)    VAR(P)  DIIS     TIME  TIME/IT
   1      1.11733072    -0.45271723  -115.55280654    -0.00931045     0.00165385  0.15D-02  0.19D-02  1  1    15.17     0.94
   2      1.12469401    -0.45307058  -115.55315988    -0.00035335    -0.00901767  0.24D-04  0.23D-03  2  2    16.08     0.97
   3      1.12739484    -0.45324566  -115.55333497    -0.00017508    -0.00185093  0.15D-04  0.13D-04  3  3    16.96     0.98
   4      1.12833254    -0.45326356  -115.55335287    -0.00001790    -0.00059541  0.86D-06  0.12D-05  4  4    17.84     0.99
   5      1.12848712    -0.45326500  -115.55335430    -0.00000144    -0.00003770  0.23D-06  0.10D-06  5  5    18.72     0.99
   6      1.12852953    -0.45326263  -115.55335194     0.00000237    -0.00000421  0.36D-07  0.95D-08  6  6    19.63     0.99
   7      1.12854068    -0.45326176  -115.55335107     0.00000087    -0.00000296  0.40D-08  0.14D-08  6  1    20.50     0.99
   8      1.12854249    -0.45326182  -115.55335113    -0.00000006     0.00000034  0.67D-09  0.20D-09  6  3    21.38     1.00

 Norm of t1 vector:      0.04990282      S-energy:    -0.00000036      T1 diagnostic:  0.00943075
                                                                       D1 diagnostic:  0.02003835

 Adding energy correction from Wij-K(Fij), methodcc=6  factor= 1.0

  CCSD correlation energy              -0.453261822131
  MP2-F12 correction (uncoupled)       -0.038571854197
  C*T doubles correction               -0.001164369567
  f12b correction                       0.007098761486


 Total CPU time for triples:     13.30 sec


 RESULTS
 =======

  Reference energy                   -115.098730305013
  F12 singles correction               -0.001359003870

 F12 singles corrections added to reference energy

  New reference energy               -115.100089308883

  F12a singlet correction              -0.035814898085
  F12a triplet correction              -0.003921325678
  F12a total correction                -0.039736223763

 F12a corrections for ansatz F12/3C(FIX) added to CCSD energy

  CCSD-F12a singlet pair energy        -0.351043377831
  CCSD-F12a triplet pair energy        -0.141954306854
  CCSD-F12a correlation energy         -0.492998045894

  Triples (T) contribution             -0.015982736830
  Total correlation energy             -0.508980782724

  CCSD-F12a total energy             -115.593087354776
  CCSD[T]-F12a energy                -115.609619950526
  CCSD-T-F12a energy                 -115.608827785556
 !CCSD(T)-F12a total energy          -115.609070091606

 F12b corrections for ansatz F12/3C(FIX) added to CCSD(T)-F12a energy

  CCSD-F12b singlet pair energy        -0.344407063956
  CCSD-F12b triplet pair energy        -0.141491859243
  CCSD-F12b correlation energy         -0.485899284408

  Triples (T) contribution             -0.015982736830
  Total correlation energy             -0.501882021238

  CCSD-F12b total energy             -115.585988593291
  CCSD[T]-F12b energy                -115.602521189040
  CCSD-T-F12b energy                 -115.601729024070
 !CCSD(T)-F12b total energy          -115.601971330120

 Timing summary (sec):

 STEP                 CPU(USER)    SYS     CPU(TOT)    WALL
 Transformation          1.36      0.21      1.57      1.57
 CCSD iterations         7.08      0.89      7.97      8.01
 Triples                13.30      0.51     13.81     13.83
 MP2-F12                12.94      0.64     13.58     13.77
 F12b energy             0.70      0.07      0.77      0.77

 Program statistics:

 Available memory in ccsd:               499999650
 Min. memory needed in ccsd:               1149135
 Max. memory used in ccsd:                 1443104
 Max. memory used in cckext:               1888566 ( 9 integral passes)



 **********************************************************************************************************************************
 DATASETS  * FILE   NREC   LENGTH (MB)   RECORD NAMES
              1      20      386.28       500      610      700      900      950      970     1000      129      960     1100   
                                          VAR    BASINP    GEOM    SYMINP    ZMAT    AOBASIS   BASIS     P2S    ABASIS      S 
                                         1400     1410     1200     1210     1080     1600     1650     1300     1700     1380   
                                           T        V       H0       H01     AOSYM     SMH    MOLCAS    ERIS     OPER     JKOP   

              2       7        3.55       700     1000      520     2100     7360     7350     7000   
                                         GEOM     BASIS   MCVARS     RHF    F12ABS    EF12   

 PROGRAMS   *        TOTAL   CCSD(T)   MP2-F12    HF-SCF       INT
 CPU TIMES  *        57.86     35.41     13.56      3.02      5.75
 REAL TIME  *        94.79 SEC
 DISK USED  *         1.13 GB
 **********************************************************************************************************************************
 SETTING XXX            =    "MMM"
 SETTING POINT          =        43.00000000                                  

 *** ### CH3OH


 XXX       RCO          ROH          RCH1         RCH2         RCH3           ACOH           AOCH1          AOCH2          AOCH3         AHH1           AHH2           AHH3            ENERGY       POINT
 "MMM"   1.42077677   0.96013932   1.09171752   1.06940070   1.09171752   108.12930637   111.65221523   107.18733878   111.65221523   61.43364279   180.00000000   298.56635721   -115.60907009   43.0000
                                                  

 CCSD(T)-F12/cc-pVTZ-F12 energy=   -115.601971330120

     CCSD(T)-F12         MP2-F12          HF-SCF
   -115.60197133   -115.58361712   -115.09873031
 **********************************************************************************************************************************
 Molpro calculation terminated
