
 Primary working directories    : /tmpdir/job/2955621.undefined/molpro.RdKQQkesdG
 Secondary working directories  : /tmpdir/job/2955621.undefined/molpro.RdKQQkesdG
 Wavefunction directory         : /home/zcaposm/wfu/
 Main file repository           : /tmpdir/job/2955621.undefined/molpro.RdKQQkesdG/

 id        : uclcc

 Nodes                         nprocs
 node-d00a-155.myriad.ucl.ac.uk    1

 Using customized tuning parameters: mindgm=1; mindgv=20; mindgc=4; mindgr=1; noblas=0; minvec=7
 default implementation of scratch files=df  


 Variables initialized (945), CPU time= 0.00 sec
 ***,Methanol Ground State Energy with CCSD(T)-F12 and cc-pVTZ-F12
 memory,500,m;
 
 geometry={angstrom
 c
 o , 1, rco
 h , 2, roh, 1, acoh
 h1, 1, rch1, 2, aoch1  3  ahh1
 h2, 1, rch2, 2, aoch2, 3, ahh2
 h3, 1, rch3, 2, aoch3, 3, ahh3
 }
 
                                                ! Specify the initial values of the internal coordinates (in Angstroms and degrees)
 
 rco= 1.42077677
 roh= 0.96013932
 rch1= 1.091717515605
 rch2= 1.08440070258
 rch3= 1.091717515605
 acoh= 107.37930637
 aoch1= 111.6522152299
 aoch2= 107.18733878260001
 aoch3= 111.6522152299
 ahh1=61.43364279
 ahh2=180.0
 ahh3=298.56635721
 
                                                                                 ! Use the cc-pVTZ-F12 basis set
 basis=cc-pVTZ-F12
 
 hf
 
                                                                                 ! Use explicitly correlated F12 methods
                                                                            ! First, MP2-F12 (useful for initial electronic energy)
 {mp2-f12}
 
                                                                        ! If desired, perform CCSD(T)-F12 for more accurate results
 {ccsd(t)-f12}
 
                                                                                 ! Output the energy
 xxx = "mmm"
 point = 55
 text ### CH3OH
 table,xxx,rco,roh,rch1,rch2,rch3,acoh,aoch1,aoch2,aoch3,ahh1,ahh2,ahh3,energy,point
 DIGITS, 0, 8, 8, 8, 8, 8, 8, 8, 8, 8,  8,  8,  8, 8, 4
 save,CH3OH_MEP_MP2_55.dat,new
 
 Commands  initialized (802), CPU time= 0.01 sec, 659 directives.
 Default parameters read. Elapsed time= 0.10 sec

 Checking input...
 Passed
1


                                         ***  PROGRAM SYSTEM MOLPRO  ***
                                       Copyright, TTI GmbH Stuttgart, 2015
                                    Version 2020.1 linked Oct  6 2020 12:04:11


 **********************************************************************************************************************************
 LABEL *   Methanol Ground State Energy with CCSD(T)-F12 and cc-pVTZ-F12                 
  64 bit serial version                                                                  DATE: 08-Oct-24          TIME: 17:18:01  
 **********************************************************************************************************************************

 SHA1:             8c27446f6450a7499e38f603e13c65f775101d37
 **********************************************************************************************************************************

 Memory per process:       500 MW
 Total memory per node:    500 MW

 GA preallocation disabled
 GA check disabled

 Variable memory set to 500.0 MW

 SETTING RCO            =         1.42077677                                  
 SETTING ROH            =         0.96013932                                  
 SETTING RCH1           =         1.09171752                                  
 SETTING RCH2           =         1.08440070                                  
 SETTING RCH3           =         1.09171752                                  
 SETTING ACOH           =       107.37930637                                  
 SETTING AOCH1          =       111.65221523                                  
 SETTING AOCH2          =       107.18733878                                  
 SETTING AOCH3          =       111.65221523                                  
 SETTING AHH1           =        61.43364279                                  
 SETTING AHH2           =       180.00000000                                  
 SETTING AHH3           =       298.56635721                                  
 SETTING BASIS          =    CC-PVTZ-F12


 Recomputing integrals since basis changed


 Using spherical harmonics

 Library entry C      S cc-pVTZ-F12          selected for orbital group  1
 Library entry C      P cc-pVTZ-F12          selected for orbital group  1
 Library entry C      D cc-pVTZ-F12          selected for orbital group  1
 Library entry C      F cc-pVTZ-F12          selected for orbital group  1
 Library entry O      S cc-pVTZ-F12          selected for orbital group  2
 Library entry O      P cc-pVTZ-F12          selected for orbital group  2
 Library entry O      D cc-pVTZ-F12          selected for orbital group  2
 Library entry O      F cc-pVTZ-F12          selected for orbital group  2
 Library entry H      S cc-pVTZ-F12          selected for orbital group  3
 Library entry H      P cc-pVTZ-F12          selected for orbital group  3
 Library entry H      D cc-pVTZ-F12          selected for orbital group  3


 PROGRAM * SEWARD (Integral evaluation for generally contracted gaussian basis sets)     Author: Roland Lindh, 1990

 Geometry written to block  1 of record 700

 Orientation using atomic masses  
 Molecule type: Asymmetric top
 Symmetry elements: X
 Rotational constants:      23.9777923     24.8379694    128.5351929 GHz  (calculated with average atomic masses)

 Point group  Cs  



 ATOMIC COORDINATES

 NR  ATOM    CHARGE       X              Y              Z

   1  C       6.00    0.000000000    0.024483869   -1.375901799
   2  O       8.00    0.000000000   -0.121904538    1.304983422
   3  H       1.00    0.000000000    1.577540466    1.940542492
   4  H1      1.00    1.684053272    0.981516719   -2.085983539
   5  H3      1.00   -1.684053272    0.981516719   -2.085983539
   6  H2      1.00    0.000000000   -1.897297807   -2.087280164

 Bond lengths in Bohr (Angstrom)

 1-2  2.684878979  1-4  2.063047110  1-5  2.063047110  1-6  2.049220337  2-3  1.814400356
     ( 1.420776770)     ( 1.091717516)     ( 1.091717516)     ( 1.084400703)     ( 0.960139320)

 Bond angles

  1-2-3  107.37930637   2-1-4  111.65221523   2-1-5  111.65221523   2-1-6  107.18733878

  4-1-5  109.43105099   4-1-6  108.39459424   5-1-6  108.39459424

 NUCLEAR CHARGE:                   18
 NUMBER OF PRIMITIVE AOS:         228
 NUMBER OF SYMMETRY AOS:          206
 NUMBER OF CONTRACTIONS:          178   (  114A'  +   64A"  )
 NUMBER OF INNER CORE ORBITALS:     0   (    0A'  +    0A"  )
 NUMBER OF OUTER CORE ORBITALS:     2   (    2A'  +    0A"  )
 NUMBER OF VALENCE ORBITALS:       12   (    9A'  +    3A"  )


 NUCLEAR REPULSION ENERGY   40.35526486

 Eigenvalues of metric

         1 0.879E-04 0.184E-03 0.309E-03 0.460E-03 0.493E-03 0.559E-03 0.617E-03 0.622E-03
         2 0.323E-03 0.570E-03 0.686E-03 0.178E-02 0.339E-02 0.496E-02 0.643E-02 0.871E-02


 Contracted 2-electron integrals neglected if value below      1.0D-11
 AO integral compression algorithm  1   Integral accuracy      1.0D-11

     331.612 MB (compressed) written to integral file ( 53.5%)


 NUMBER OF SORTED TWO-ELECTRON INTEGRALS:   64554730.     BUFFER LENGTH:  32768
 NUMBER OF SEGMENTS:   5  SEGMENT LENGTH:   15997996      RECORD LENGTH: 524288

 Memory used in sort:      16.56 MW

 SORT1 READ    77497885. AND WROTE    63556752. INTEGRALS IN    184 RECORDS. CPU TIME:     1.28 SEC, REAL TIME:     9.67 SEC
 SORT2 READ    63556752. AND WROTE    64554730. INTEGRALS IN   1265 RECORDS. CPU TIME:     1.52 SEC, REAL TIME:    16.13 SEC

 FILE SIZES:   FILE 1:   362.5 MBYTE,  FILE 4:   771.8 MBYTE,   TOTAL:   1134.3 MBYTE

 OPERATOR DM      FOR CENTER  0  COORDINATES:    0.000000    0.000000    0.000000


 **********************************************************************************************************************************
 DATASETS  * FILE   NREC   LENGTH (MB)   RECORD NAMES
              1      19      311.88       500      610      700      900      950      970     1000      129      960     1100   
                                          VAR    BASINP    GEOM    SYMINP    ZMAT    AOBASIS   BASIS     P2S    ABASIS      S 
                                         1400     1410     1200     1210     1080     1600     1650     1300     1700   
                                           T        V       H0       H01     AOSYM     SMH    MOLCAS    ERIS     OPER   

 PROGRAMS   *        TOTAL       INT
 CPU TIMES  *         6.40      6.29
 REAL TIME  *        40.85 SEC
 DISK USED  *         1.13 GB
 **********************************************************************************************************************************


 PROGRAM * RHF-SCF (CLOSED SHELL)       Authors: W. Meyer, H.-J. Werner


 NUMBER OF ELECTRONS:       9+    9-
 CONVERGENCE THRESHOLDS:    1.00E-05 (Density)    1.00E-07 (Energy)
 MAX. NUMBER OF ITERATIONS:       60
 INTERPOLATION TYPE:            DIIS
 INTERPOLATION STEPS:              2 (START)      1 (STEP)
 LEVEL SHIFTS:                  0.00 (CLOSED)  0.00 (OPEN) 



 Orbital guess generated from atomic densities. Full valence occupancy:   11   3

 Molecular orbital dump at record        2100.2

 Initial occupancy:   7   2

 ITERATION    DDIFF          GRAD             ENERGY        2-EL.EN.            DIPOLE MOMENTS         DIIS   ORB.
    1      0.000D+00      0.000D+00      -115.06223389    164.492688    0.00000    0.90715   -0.48780    0    start
    2      0.000D+00      0.668D-02      -115.09063137    161.918412    0.00000    0.49688   -0.30941    1    diag
    3      0.653D-02      0.366D-02      -115.09813305    163.178222    0.00000    0.60098   -0.40354    2    diag
    4      0.222D-02      0.721D-03      -115.09866641    163.001880    0.00000    0.59579   -0.39873    3    diag
    5      0.593D-03      0.145D-03      -115.09870110    163.013506    0.00000    0.59179   -0.40354    4    diag
    6      0.166D-03      0.272D-04      -115.09870268    163.011220    0.00000    0.59193   -0.40432    5    diag
    7      0.476D-04      0.578D-05      -115.09870275    163.010862    0.00000    0.59175   -0.40460    6    diag
    8      0.120D-04      0.150D-05      -115.09870275    163.011205    0.00000    0.59173   -0.40463    7    diag
    9      0.234D-05      0.467D-06      -115.09870275    163.011040    0.00000    0.59172   -0.40463    0    orth

 Final occupancy:   7   2

 !RHF STATE  1.1 Energy              -115.098702754260
 Nuclear energy                        40.35526486
 One-electron energy                 -236.95948749
 Two-electron energy                   81.50551988
 Virial quotient                       -1.00099802
 !RHF STATE  1.1 Dipole moment          0.00000000     0.59171882    -0.40463182
 Dipole moment /Debye                   0.00000000     1.50390072    -1.02840415

 Orbital energies:

         1.1          2.1          3.1          4.1          5.1          6.1          7.1          8.1          9.1
    -20.556693   -11.269730    -1.357495    -0.926085    -0.690945    -0.594067    -0.505096     0.054558     0.065008

         1.2          2.2          3.2          4.2
     -0.621783    -0.452330     0.073754     0.181546


 HOMO      2.2    -0.452330 =     -12.3085eV
 LUMO      8.1     0.054558 =       1.4846eV
 LUMO-HOMO         0.506888 =      13.7931eV


 **********************************************************************************************************************************
 DATASETS  * FILE   NREC   LENGTH (MB)   RECORD NAMES
              1      19      311.88       500      610      700      900      950      970     1000      129      960     1100   
                                          VAR    BASINP    GEOM    SYMINP    ZMAT    AOBASIS   BASIS     P2S    ABASIS      S 
                                         1400     1410     1200     1210     1080     1600     1650     1300     1700   
                                           T        V       H0       H01     AOSYM     SMH    MOLCAS    ERIS     OPER   

              2       4        3.18       700     1000      520     2100   
                                         GEOM     BASIS   MCVARS     RHF  

 PROGRAMS   *        TOTAL    HF-SCF       INT
 CPU TIMES  *         9.44      3.04      6.29
 REAL TIME  *        45.66 SEC
 DISK USED  *         1.13 GB
 **********************************************************************************************************************************


 PROGRAM * MP2 (Closed-shell)     Authors: C. Hampel, H.-J. Werner, 1991, M. Deegan, P.J. Knowles, 1992

                                   MP2-F12 implementation by H.-J. Werner, 2007

                   Density fitting integral evaluation by F.R. Manby, 2003,2007, G. Knizia, 2010


 Basis set AUG-CC-PVTZ/JKFIT generated.  Number of basis functions:   392 
 Basis set CC-PVTZ-F12/OPTRI generated.  Number of basis functions:   314 
 Basis set AUG-CC-PVTZ/MP2FIT generated. Number of basis functions:   396 

 Convergence thresholds:  THRVAR = 1.00D-08  THRDEN = 1.00D-06

 Number of core orbitals:           2 (   2   0 )
 Number of closed-shell orbitals:   7 (   5   2 )
 Number of external orbitals:     169 ( 107  62 )

 Molecular orbitals read from record     2100.2  Type=RHF/CANONICAL (state 1.1)

 MP2-F12 correlation treatment (H.-J. Werner, 2006)
 ==================================================

 Using MP2-F12 with ansatz 3C(FIX)

 Using projected zeroth-order Hamiltonian (+Z)

 FOCKRIB=T FOCKRIC=T FOCKRIP=T CABSP=T CABSA=T CABSK=T CABSF=T GBC=F EBC=F DMAT=T NOFIK=T NOPAO=1 SOLVE=-1  USEPAO=0
 EXCH_A= T EXCH_B= F EXCH_C= F EXCH_P= F

 Geminal basis:    OPTFULL  GEM_TYPE=SLATER  BETA=1.0  NGEM=6

 Optimizing Gaussian exponents for each gem_beta

 Geminal optimization for beta= 1.0000
 Weight function:   m=0, omega= 1.4646

 Augmented Hessian optimization of geminal fit. Trust ratio= 0.40000
 Convergence reached after   2 iterations. Final gradient= 8.66D-16, Step= 4.23D-06, Delta= 1.28D-09

 Alpha:                 0.19532     0.81920     2.85917     9.50073    35.69989   197.79328
 Coeff:                 0.27070     0.30552     0.18297     0.10986     0.06810     0.04224


 Symmetry turned off. Reference energy:       -115.098702754260

 All pairs explicitly correlated. Number of r12-pairs:           28

 Excluding core orbitals from MO domains

 AO(A)-basis ORBITAL           loaded. Number of functions:     178
 RI(R)-basis CC-PVTZ-F12/OPTRI loaded. Number of functions:     314
 DF-basis AUG-CC-PVTZ/JKFIT    loaded. Number of functions:     392

 Screening thresholds:   THRAO=  1.00D-10  THRMO=  1.00D-09  THRPROD=  1.00D-09
                         THRSW=  1.00D-05  THROV=  1.00D-12  THRAOF12= 1.00D-08

 CPU time for Fock operators                      5.43 sec

 Construction of ABS:
 Smallest eigenvalue of S          4.32E-04  (threshold= 1.00E-08)
 Ratio eigmin/eigmax               5.52E-05  (threshold= 1.00E-09)
 Smallest eigenvalue of S kept     4.32E-04  (threshold= 4.32E-04, 0 functions deleted, 314 kept)

 Construction of CABS:
 Smallest eigenvalue of S          7.25E-07  (threshold= 1.00E-08)
 Ratio eigmin/eigmax               7.25E-07  (threshold= 1.00E-09)
 Smallest eigenvalue of S kept     7.25E-07  (threshold= 7.25E-07, 0 functions deleted, 314 kept)

 CPU time for CABS singles                        0.04 sec

 CABS-singles contribution of  -0.00135373 patched into reference energy.
 New reference energy        -115.10005649

 AO(A)-basis ORBITAL           loaded. Number of functions:     178
 RI(R)-basis CC-PVTZ-F12/OPTRI loaded. Number of functions:     314
 DF-basis AUG-CC-PVTZ/MP2FIT   loaded. Number of functions:     396

 Screening thresholds:   THRAO=  1.00D-10  THRMO=  1.00D-09  THRPROD=  1.00D-09
                         THRSW=  1.00D-05  THROV=  1.00D-12  THRAOF12= 1.00D-08

 CPU time for 3-index integral evaluation         3.41 sec
 CPU time for first  half transformation          0.26 sec ( 9496.4 MFLOP/sec)
 CPU time for second half transformation          0.02 sec ( 3108.5 MFLOP/sec)
 CPU time for sorting                             0.02 sec
 CPU time for fitting                             0.02 sec (56971.3 MFLOP/sec)
 CPU time for tilde quantities                    0.02 sec (75522.6 MFLOP/sec)
 CPU time for assembly                            0.20 sec (61768.0 MFLOP/sec)
 CPU time for tranop_f12                          0.27 sec (58741.6 MFLOP/sec)
 CPU time for f12 integrals (total)               7.13 sec, Elapsed time:      8.06 sec
 CPU time for f12 matrices (total)                0.10 sec, Elapsed time:      0.15 sec

 Diagonal F12 approximation with fixed coefficients:  TSING= 0.500,  TTRIP= 0.250 (scaled by -1/beta)

 DF-MP2-F12 energy corrections:
 ==============================
 Approx.                                    Singlet             Triplet             Total
 DF-MP2-F12/3*C(DX,FIX)                -0.038286282898     -0.004213533439     -0.042499816337
 DF-MP2-F12/3*C(FIX)                   -0.036086972777     -0.003931917518     -0.040018890296
 DF-MP2-F12/3C(FIX)                    -0.036029643247     -0.004066927173     -0.040096570420

 DF-MP2-F12 correlation energies:
 ================================
 Approx.                                    Singlet             Triplet             Ecorr            Total Energy
 DF-MP2                                -0.291132338420     -0.152393604870     -0.443525943290   -115.543582430107
 DF-MP2-F12/3*C(DX,FIX)                -0.329418621318     -0.156607138309     -0.486025759627   -115.586082246444
 DF-MP2-F12/3*C(FIX)                   -0.327219311197     -0.156325522389     -0.483544833586   -115.583601320403
 DF-MP2-F12/3C(FIX)                    -0.327161981667     -0.156460532043     -0.483622513711   -115.583679000528

 SCS-DF-MP2 energies (F_SING= 1.20000  F_TRIP= 0.62222  F_PARALLEL= 0.33333):
 ============================================================================
 SCS-DF-MP2                            -0.444181493579   -115.544237980396
 SCS-DF-MP2-F12/3*C(DX,FIX)            -0.492746787196   -115.592803274013
 SCS-DF-MP2-F12/3*C(FIX)               -0.489932387367   -115.589988874184
 SCS-DF-MP2-F12/3C(FIX)                -0.489947597939   -115.590004084756

 Symmetry restored.
 Symmetry transformation completed.

 Number of N-1 electron functions:               7
 Number of N-2 electron functions:              28
 Number of singly external CSFs:               659
 Number of doubly external CSFs:            355020
 Total number of CSFs:                      355680

 Length of J-op  integral file:             103.49 MB
 Length of K-op  integral file:             127.95 MB

 Integral transformation finished. Total CPU:   0.48 sec, npass=  1  Memory used:   0.67 MW

 ITER.      SQ.NORM     CORR.ENERGY   TOTAL ENERGY   ENERGY CHANGE     VAR   MIC
   1      1.00000000    -0.44359224  -115.54364873    -0.44359224  0.00D+00   0
   2      1.11476416    -0.44359224  -115.54364873     0.00000000 -0.24D-15   0

 Solving MP2-F12 equations

   1      1.11472786    -0.48293047  -115.58298696    -0.03933823 -0.37D-04   0
   2      1.11472786    -0.48368742  -115.58374390    -0.00075694 -0.29D-17   0
   3      1.11472786    -0.48368742  -115.58374390     0.00000000  0.68D-20   0

 CPU TIME FOR ITERATIVE MP2:    0.04 SEC


 MP2-F12 energy corrections:
 ===========================
 Approx.                                    Singlet             Triplet             Total
 MP2-F12/3*C(DX,FIX)                   -0.038286282898     -0.004213533439     -0.042499816337
 MP2-F12/3*C(FIX)                      -0.036086972777     -0.003931917518     -0.040018890296
 MP2-F12/3C(FIX)                       -0.036026950187     -0.004068227261     -0.040095177447

 MP2-F12 correlation energies:
 =============================
 Approx.                                    Singlet             Triplet             Ecorr            Total Energy
 MP2                                   -0.291315718975     -0.152276521566     -0.443592240542   -115.543648727359
 MP2-F12/3*C(DX,FIX)                   -0.329602001873     -0.156490055005     -0.486092056879   -115.586148543696
 MP2-F12/3*C(FIX)                      -0.327402691753     -0.156208439085     -0.483611130837   -115.583667617654
 MP2-F12/3C(FIX)                       -0.327342669162     -0.156344748827     -0.483687417989   -115.583743904806

 SCS-MP2 energies (F_SING= 1.20000  F_TRIP= 0.62222  F_PARALLEL= 0.33333):
 =========================================================================
 SCS-MP2                               -0.444328698412   -115.544385185229
 SCS-MP2-F12/3*C(DX,FIX)               -0.492893992029   -115.592950478846
 SCS-MP2-F12/3*C(FIX)                  -0.490079592200   -115.590136079017
 SCS-MP2-F12/3C(FIX)                   -0.490092380043   -115.590148866860


  Reference energy                   -115.098702754260
  F12 singles correction               -0.001353732557

 F12 singles corrections added to reference energy

  New reference energy               -115.100056486817

  F12/3C(F) singlet correction         -0.036026950187
  F12/3C(F) triplet correction         -0.004068227261
  F12/3C(F) total correction           -0.040095177447
  MP2-F12/3C(F) singlet pair energy    -0.327342669162
  MP2-F12/3C(F) triplet pair energy    -0.156344748827
  MP2-F12/3C(F) correlation energy     -0.483687417989

 !MP2-F12/3C(F) total energy         -115.583743904806


 **********************************************************************************************************************************
 DATASETS  * FILE   NREC   LENGTH (MB)   RECORD NAMES
              1      20      317.62       500      610      700      900      950      970     1000      129      960     1100   
                                          VAR    BASINP    GEOM    SYMINP    ZMAT    AOBASIS   BASIS     P2S    ABASIS      S 
                                         1400     1410     1200     1210     1080     1600     1650     1300     1700     1380   
                                           T        V       H0       H01     AOSYM     SMH    MOLCAS    ERIS     OPER     JKOP   

              2       7        3.55       700     1000      520     2100     7360     7350     7000   
                                         GEOM     BASIS   MCVARS     RHF    F12ABS    EF12   

 PROGRAMS   *        TOTAL   MP2-F12    HF-SCF       INT
 CPU TIMES  *        22.95     13.51      3.04      6.29
 REAL TIME  *        63.95 SEC
 DISK USED  *         1.13 GB
 **********************************************************************************************************************************


 PROGRAM * CCSD (Closed-shell coupled cluster)     Authors: C. Hampel, H.-J. Werner, 1991, M. Deegan, P.J. Knowles, 1992

                                  CCSD-F12 implementation by  H.-J. Werner, 2007

                   Density fitting integral evaluation by F.R. Manby, 2003,2007, G. Knizia, 2010



 Convergence thresholds:  THRVAR = 1.00D-08  THRDEN = 1.00D-06

 CCSD(T)     terms to be evaluated (factor= 1.000)


 Number of core orbitals:           2 (   2   0 )
 Number of closed-shell orbitals:   7 (   5   2 )
 Number of external orbitals:     169 ( 107  62 )

 Molecular orbitals read from record     2100.2  Type=RHF/CANONICAL (state 1.1)

 MP2-F12 correlation treatment (H.-J. Werner, 2006)
 ==================================================

 Using MP2-F12 with ansatz 3C(FIX)

 Using projected zeroth-order Hamiltonian (+Z)

 FOCKRIB=T FOCKRIC=T FOCKRIP=T CABSP=T CABSA=T CABSK=T CABSF=T GBC=F EBC=F DMAT=T NOFIK=T NOPAO=1 SOLVE=-1  USEPAO=0
 EXCH_A= T EXCH_B= F EXCH_C= F EXCH_P= F

 Geminal basis:    OPTFULL  GEM_TYPE=SLATER  BETA=1.0  NGEM=6

 Optimizing Gaussian exponents for each gem_beta

 Geminal optimization for beta= 1.0000
 Weight function:   m=0, omega= 1.4646

 Augmented Hessian optimization of geminal fit. Trust ratio= 0.40000
 Convergence reached after   2 iterations. Final gradient= 8.66D-16, Step= 4.23D-06, Delta= 1.28D-09

 Alpha:                 0.19532     0.81920     2.85917     9.50073    35.69989   197.79328
 Coeff:                 0.27070     0.30552     0.18297     0.10986     0.06810     0.04224


 Symmetry turned off. Reference energy:       -115.098702754260

 All pairs explicitly correlated. Number of r12-pairs:           28

 Excluding core orbitals from MO domains

 AO(A)-basis ORBITAL           loaded. Number of functions:     178
 RI(R)-basis CC-PVTZ-F12/OPTRI loaded. Number of functions:     314
 DF-basis AUG-CC-PVTZ/JKFIT    loaded. Number of functions:     392

 Screening thresholds:   THRAO=  1.00D-10  THRMO=  1.00D-09  THRPROD=  1.00D-09
                         THRSW=  1.00D-05  THROV=  1.00D-12  THRAOF12= 1.00D-08

 CPU time for Fock operators                      5.37 sec

 Construction of ABS:
 Smallest eigenvalue of S          4.32E-04  (threshold= 1.00E-08)
 Ratio eigmin/eigmax               5.52E-05  (threshold= 1.00E-09)
 Smallest eigenvalue of S kept     4.32E-04  (threshold= 4.32E-04, 0 functions deleted, 314 kept)

 Construction of CABS:
 Smallest eigenvalue of S          7.25E-07  (threshold= 1.00E-08)
 Ratio eigmin/eigmax               7.25E-07  (threshold= 1.00E-09)
 Smallest eigenvalue of S kept     7.25E-07  (threshold= 7.25E-07, 0 functions deleted, 314 kept)

 CPU time for CABS singles                        0.04 sec

 CABS-singles contribution of  -0.00135373 patched into reference energy.
 New reference energy        -115.10005649

 AO(A)-basis ORBITAL           loaded. Number of functions:     178
 RI(R)-basis CC-PVTZ-F12/OPTRI loaded. Number of functions:     314
 DF-basis AUG-CC-PVTZ/MP2FIT   loaded. Number of functions:     396

 Screening thresholds:   THRAO=  1.00D-10  THRMO=  1.00D-09  THRPROD=  1.00D-09
                         THRSW=  1.00D-05  THROV=  1.00D-12  THRAOF12= 1.00D-08

 CPU time for 3-index integral evaluation         3.33 sec
 CPU time for first  half transformation          0.25 sec ( 9876.2 MFLOP/sec)
 CPU time for second half transformation          0.02 sec ( 3108.5 MFLOP/sec)
 CPU time for sorting                             0.02 sec
 CPU time for fitting                             0.01 sec (******* MFLOP/sec)
 CPU time for tilde quantities                    0.02 sec (75522.6 MFLOP/sec)
 CPU time for assembly                            0.21 sec (58826.6 MFLOP/sec)
 CPU time for tranop_f12                          0.25 sec (63440.9 MFLOP/sec)
 CPU time for f12 integrals (total)               7.02 sec, Elapsed time:      7.70 sec
 CPU time for f12 matrices (total)                0.11 sec, Elapsed time:      0.14 sec

 Diagonal F12 approximation with fixed coefficients:  TSING= 0.500,  TTRIP= 0.250 (scaled by -1/beta)

 DF-MP2-F12 energy corrections:
 ==============================
 Approx.                                    Singlet             Triplet             Total
 DF-MP2-F12/3*C(DX,FIX)                -0.038286282898     -0.004213533439     -0.042499816337
 DF-MP2-F12/3*C(FIX)                   -0.036086972777     -0.003931917518     -0.040018890296
 DF-MP2-F12/3C(FIX)                    -0.036029643247     -0.004066927173     -0.040096570420

 DF-MP2-F12 correlation energies:
 ================================
 Approx.                                    Singlet             Triplet             Ecorr            Total Energy
 DF-MP2                                -0.291132338420     -0.152393604870     -0.443525943290   -115.543582430107
 DF-MP2-F12/3*C(DX,FIX)                -0.329418621318     -0.156607138309     -0.486025759627   -115.586082246444
 DF-MP2-F12/3*C(FIX)                   -0.327219311197     -0.156325522389     -0.483544833586   -115.583601320403
 DF-MP2-F12/3C(FIX)                    -0.327161981667     -0.156460532043     -0.483622513711   -115.583679000528

 SCS-DF-MP2 energies (F_SING= 1.20000  F_TRIP= 0.62222  F_PARALLEL= 0.33333):
 ============================================================================
 SCS-DF-MP2                            -0.444181493579   -115.544237980396
 SCS-DF-MP2-F12/3*C(DX,FIX)            -0.492746787196   -115.592803274013
 SCS-DF-MP2-F12/3*C(FIX)               -0.489932387367   -115.589988874184
 SCS-DF-MP2-F12/3C(FIX)                -0.489947597939   -115.590004084756

 Symmetry restored.
 Symmetry transformation completed.

 Number of N-1 electron functions:               7
 Number of N-2 electron functions:              28
 Number of singly external CSFs:               659
 Number of doubly external CSFs:            355020
 Total number of CSFs:                      355680

 Length of J-op  integral file:             103.62 MB
 Length of K-op  integral file:             127.95 MB
 Length of 3-ext integral record:             0.00 MB

 Memory could be reduced to 24.20 Mwords without degradation in triples

 Integral transformation finished. Total CPU:   1.13 sec, npass=  1  Memory used:   7.45 MW

 Reference energy:                   -115.10005649

 Adding F12 terms to K(Cij), methodcc=6,  factor= 1.0

 ITER.      SQ.NORM     CORR.ENERGY   TOTAL ENERGY   ENERGY CHANGE        DEN1      VAR(S)    VAR(P)  DIIS     TIME  TIME/IT
   1      1.11764575    -0.45291896  -115.55297545    -0.00932672     0.00168157  0.15D-02  0.19D-02  1  1    14.62     0.88
   2      1.12505765    -0.45327941  -115.55333589    -0.00036045    -0.00905081  0.24D-04  0.23D-03  2  2    15.43     0.89
   3      1.12778829    -0.45345678  -115.55351327    -0.00017737    -0.00186562  0.15D-04  0.13D-04  3  3    16.24     0.90
   4      1.12873625    -0.45347464  -115.55353112    -0.00001786    -0.00060082  0.86D-06  0.12D-05  4  4    17.04     0.90
   5      1.12889167    -0.45347620  -115.55353269    -0.00000157    -0.00003792  0.23D-06  0.10D-06  5  5    17.87     0.90
   6      1.12893410    -0.45347385  -115.55353034     0.00000235    -0.00000420  0.35D-07  0.96D-08  6  6    18.67     0.90
   7      1.12894514    -0.45347298  -115.55352946     0.00000087    -0.00000297  0.39D-08  0.14D-08  6  1    19.52     0.91
   8      1.12894693    -0.45347304  -115.55352952    -0.00000006     0.00000033  0.67D-09  0.20D-09  6  3    20.36     0.91

 Norm of t1 vector:      0.05002868      S-energy:    -0.00000037      T1 diagnostic:  0.00945453
                                                                       D1 diagnostic:  0.02006360

 Adding energy correction from Wij-K(Fij), methodcc=6  factor= 1.0

  CCSD correlation energy              -0.453473037669
  MP2-F12 correction (uncoupled)       -0.038544305579
  C*T doubles correction               -0.001165371523
  f12b correction                       0.007098392321


 Total CPU time for triples:     10.85 sec


 RESULTS
 =======

  Reference energy                   -115.098702754260
  F12 singles correction               -0.001353732557

 F12 singles corrections added to reference energy

  New reference energy               -115.100056486817

  F12a singlet correction              -0.035790117829
  F12a triplet correction              -0.003919559273
  F12a total correction                -0.039709677102

 F12a corrections for ansatz F12/3C(FIX) added to CCSD energy

  CCSD-F12a singlet pair energy        -0.351246141277
  CCSD-F12a triplet pair energy        -0.141936206788
  CCSD-F12a correlation energy         -0.493182714772

  Triples (T) contribution             -0.016020924552
  Total correlation energy             -0.509203639324

  CCSD-F12a total energy             -115.593239201589
  CCSD[T]-F12a energy                -115.609813665305
  CCSD-T-F12a energy                 -115.609016138061
 !CCSD(T)-F12a total energy          -115.609260126141

 F12b corrections for ansatz F12/3C(FIX) added to CCSD(T)-F12a energy

  CCSD-F12b singlet pair energy        -0.344609844237
  CCSD-F12b triplet pair energy        -0.141474111507
  CCSD-F12b correlation energy         -0.486084322450

  Triples (T) contribution             -0.016020924552
  Total correlation energy             -0.502105247002

  CCSD-F12b total energy             -115.586140809267
  CCSD[T]-F12b energy                -115.602715272983
  CCSD-T-F12b energy                 -115.601917745740
 !CCSD(T)-F12b total energy          -115.602161733819

 Timing summary (sec):

 STEP                 CPU(USER)    SYS     CPU(TOT)    WALL
 Transformation          1.14      0.20      1.34      1.33
 CCSD iterations         6.59      0.72      7.31      7.37
 Triples                10.85      0.42     11.27     11.34
 MP2-F12                12.64      0.56     13.20     14.22
 F12b energy             0.66      0.07      0.73      0.73

 Program statistics:

 Available memory in ccsd:               499999650
 Min. memory needed in ccsd:               1149135
 Max. memory used in ccsd:                 1443104
 Max. memory used in cckext:               1888566 ( 9 integral passes)



 **********************************************************************************************************************************
 DATASETS  * FILE   NREC   LENGTH (MB)   RECORD NAMES
              1      20      386.19       500      610      700      900      950      970     1000      129      960     1100   
                                          VAR    BASINP    GEOM    SYMINP    ZMAT    AOBASIS   BASIS     P2S    ABASIS      S 
                                         1400     1410     1200     1210     1080     1600     1650     1300     1700     1380   
                                           T        V       H0       H01     AOSYM     SMH    MOLCAS    ERIS     OPER     JKOP   

              2       7        3.55       700     1000      520     2100     7360     7350     7000   
                                         GEOM     BASIS   MCVARS     RHF    F12ABS    EF12   

 PROGRAMS   *        TOTAL   CCSD(T)   MP2-F12    HF-SCF       INT
 CPU TIMES  *        54.86     31.90     13.51      3.04      6.29
 REAL TIME  *        99.29 SEC
 DISK USED  *         1.13 GB
 **********************************************************************************************************************************
 SETTING XXX            =    "MMM"
 SETTING POINT          =        55.00000000                                  

 *** ### CH3OH


 XXX       RCO          ROH          RCH1         RCH2         RCH3           ACOH           AOCH1          AOCH2          AOCH3         AHH1           AHH2           AHH3            ENERGY       POINT
 "MMM"   1.42077677   0.96013932   1.09171752   1.08440070   1.09171752   107.37930637   111.65221523   107.18733878   111.65221523   61.43364279   180.00000000   298.56635721   -115.60926013   55.0000
                                                  

 CCSD(T)-F12/cc-pVTZ-F12 energy=   -115.602161733819

     CCSD(T)-F12         MP2-F12          HF-SCF
   -115.60216173   -115.58374390   -115.09870275
 **********************************************************************************************************************************
 Molpro calculation terminated
