
 Primary working directories    : /tmpdir/job/2955668.undefined/molpro.ehYKiA6JUl
 Secondary working directories  : /tmpdir/job/2955668.undefined/molpro.ehYKiA6JUl
 Wavefunction directory         : /home/zcaposm/wfu/
 Main file repository           : /tmpdir/job/2955668.undefined/molpro.ehYKiA6JUl/

 id        : uclcc

 Nodes                         nprocs
 node-d00a-005.myriad.ucl.ac.uk    1

 Using customized tuning parameters: mindgm=1; mindgv=20; mindgc=4; mindgr=1; noblas=0; minvec=7
 default implementation of scratch files=df  


 Variables initialized (945), CPU time= 0.01 sec
 ***,Methanol Ground State Energy with CCSD(T)-F12 and cc-pVTZ-F12
 memory,500,m;
 
 geometry={angstrom
 c
 o , 1, rco
 h , 2, roh, 1, acoh
 h1, 1, rch1, 2, aoch1  3  ahh1
 h2, 1, rch2, 2, aoch2, 3, ahh2
 h3, 1, rch3, 2, aoch3, 3, ahh3
 }
 
                                                ! Specify the initial values of the internal coordinates (in Angstroms and degrees)
 
 rco= 1.42077677
 roh= 0.96013932
 rch1= 1.091717515605
 rch2= 1.08440070258
 rch3= 1.091717515605
 acoh= 108.12930637
 aoch1= 111.6522152299
 aoch2= 107.18733878260001
 aoch3= 111.6522152299
 ahh1=61.55149392019777
 ahh2=179.94107443490114
 ahh3=298.5074316449011
 
                                                                                 ! Use the cc-pVTZ-F12 basis set
 basis=cc-pVTZ-F12
 
 hf
 
                                                                                 ! Use explicitly correlated F12 methods
                                                                            ! First, MP2-F12 (useful for initial electronic energy)
 {mp2-f12}
 
                                                                        ! If desired, perform CCSD(T)-F12 for more accurate results
 {ccsd(t)-f12}
 
                                                                                 ! Output the energy
 xxx = "mmm"
 point = 98
 text ### CH3OH
 table,xxx,rco,roh,rch1,rch2,rch3,acoh,aoch1,aoch2,aoch3,ahh1,ahh2,ahh3,energy,point
 DIGITS, 0, 8, 8, 8, 8, 8, 8, 8, 8, 8,  8,  8,  8, 8, 4
 save,CH3OH_MEP_MP2_98.dat,new
 
 Commands  initialized (802), CPU time= 0.01 sec, 659 directives.
 Default parameters read. Elapsed time= 0.44 sec

 Checking input...
 Passed
1


                                         ***  PROGRAM SYSTEM MOLPRO  ***
                                       Copyright, TTI GmbH Stuttgart, 2015
                                    Version 2020.1 linked Oct  6 2020 12:04:11


 **********************************************************************************************************************************
 LABEL *   Methanol Ground State Energy with CCSD(T)-F12 and cc-pVTZ-F12                 
  64 bit serial version                                                                  DATE: 08-Oct-24          TIME: 17:30:45  
 **********************************************************************************************************************************

 SHA1:             8c27446f6450a7499e38f603e13c65f775101d37
 **********************************************************************************************************************************

 Memory per process:       500 MW
 Total memory per node:    500 MW

 GA preallocation disabled
 GA check disabled

 Variable memory set to 500.0 MW

 SETTING RCO            =         1.42077677                                  
 SETTING ROH            =         0.96013932                                  
 SETTING RCH1           =         1.09171752                                  
 SETTING RCH2           =         1.08440070                                  
 SETTING RCH3           =         1.09171752                                  
 SETTING ACOH           =       108.12930637                                  
 SETTING AOCH1          =       111.65221523                                  
 SETTING AOCH2          =       107.18733878                                  
 SETTING AOCH3          =       111.65221523                                  
 SETTING AHH1           =        61.55149392                                  
 SETTING AHH2           =       179.94107443                                  
 SETTING AHH3           =       298.50743164                                  
 SETTING BASIS          =    CC-PVTZ-F12


 Recomputing integrals since basis changed


 Using spherical harmonics

 Library entry C      S cc-pVTZ-F12          selected for orbital group  1
 Library entry C      P cc-pVTZ-F12          selected for orbital group  1
 Library entry C      D cc-pVTZ-F12          selected for orbital group  1
 Library entry C      F cc-pVTZ-F12          selected for orbital group  1
 Library entry O      S cc-pVTZ-F12          selected for orbital group  2
 Library entry O      P cc-pVTZ-F12          selected for orbital group  2
 Library entry O      D cc-pVTZ-F12          selected for orbital group  2
 Library entry O      F cc-pVTZ-F12          selected for orbital group  2
 Library entry H      S cc-pVTZ-F12          selected for orbital group  3
 Library entry H      P cc-pVTZ-F12          selected for orbital group  3
 Library entry H      D cc-pVTZ-F12          selected for orbital group  3


 PROGRAM * SEWARD (Integral evaluation for generally contracted gaussian basis sets)     Author: Roland Lindh, 1990

 Geometry written to block  1 of record 700

 Orientation using atomic masses  
 Molecule type: Asymmetric top
 Rotational constants:      23.9614347     24.8044880    128.7877095 GHz  (calculated with average atomic masses)

 Point group  C1  



 ATOMIC COORDINATES

 NR  ATOM    CHARGE       X              Y              Z

   1  C       6.00   -0.000177560    0.025597641   -1.376578365
   2  O       8.00   -0.000236699   -0.122122652    1.304233796
   3  H       1.00    0.003700988    1.568526034    1.962823325
   4  H1      1.00    1.687862937    0.975661791   -2.086550739
   5  H2      1.00   -0.002635586   -1.895828814   -2.088911381
   6  H3      1.00   -1.683055259    0.985107150   -2.086104636

 Bond lengths in Bohr (Angstrom)

 1-2  2.684878979  1-4  2.063047110  1-5  2.049220337  1-6  2.063047110  2-3  1.814400356
     ( 1.420776770)     ( 1.091717516)     ( 1.084400703)     ( 1.091717516)     ( 0.960139320)

 Bond angles

  1-2-3  108.12930637   2-1-4  111.65221523   2-1-5  107.18733878   2-1-6  111.65221523

  4-1-5  108.24925279   4-1-6  109.56698511   5-1-6  108.39459424

 NUCLEAR CHARGE:                   18
 NUMBER OF PRIMITIVE AOS:         228
 NUMBER OF SYMMETRY AOS:          206
 NUMBER OF CONTRACTIONS:          178   (  178A   )
 NUMBER OF INNER CORE ORBITALS:     0   (    0A   )
 NUMBER OF OUTER CORE ORBITALS:     2   (    2A   )
 NUMBER OF VALENCE ORBITALS:       12   (   12A   )


 NUCLEAR REPULSION ENERGY   40.34545264

 Eigenvalues of metric

         1 0.880E-04 0.183E-03 0.309E-03 0.323E-03 0.460E-03 0.493E-03 0.560E-03 0.570E-03


 Contracted 2-electron integrals neglected if value below      1.0D-11
 AO integral compression algorithm  1   Integral accuracy      1.0D-11

     596.115 MB (compressed) written to integral file ( 50.0%)


 NUMBER OF SORTED TWO-ELECTRON INTEGRALS:  126906346.     BUFFER LENGTH:  32768
 NUMBER OF SEGMENTS:   8  SEGMENT LENGTH:   15999503      RECORD LENGTH: 524288

 Memory used in sort:      16.56 MW

 SORT1 READ   149034713. AND WROTE   124584970. INTEGRALS IN    359 RECORDS. CPU TIME:     1.88 SEC, REAL TIME:    24.22 SEC
 SORT2 READ   124584970. AND WROTE   126906346. INTEGRALS IN   2274 RECORDS. CPU TIME:     2.08 SEC, REAL TIME:    40.53 SEC

 FILE SIZES:   FILE 1:   627.3 MBYTE,  FILE 4:  1505.8 MBYTE,   TOTAL:   2133.1 MBYTE

 OPERATOR DM      FOR CENTER  0  COORDINATES:    0.000000    0.000000    0.000000


 **********************************************************************************************************************************
 DATASETS  * FILE   NREC   LENGTH (MB)   RECORD NAMES
              1      19      550.81       500      610      700      900      950      970     1000      129      960     1100   
                                          VAR    BASINP    GEOM    SYMINP    ZMAT    AOBASIS   BASIS     P2S    ABASIS      S 
                                         1400     1410     1200     1210     1080     1600     1650     1300     1700   
                                           T        V       H0       H01     AOSYM     SMH    MOLCAS    ERIS     OPER   

 PROGRAMS   *        TOTAL       INT
 CPU TIMES  *         8.96      8.82
 REAL TIME  *        80.67 SEC
 DISK USED  *         2.13 GB
 **********************************************************************************************************************************


 PROGRAM * RHF-SCF (CLOSED SHELL)       Authors: W. Meyer, H.-J. Werner


 NUMBER OF ELECTRONS:       9+    9-    SPACE SYMMETRY=1    SPIN SYMMETRY: Singlet 
 CONVERGENCE THRESHOLDS:    1.00E-05 (Density)    1.00E-07 (Energy)
 MAX. NUMBER OF ITERATIONS:       60
 INTERPOLATION TYPE:            DIIS
 INTERPOLATION STEPS:              2 (START)      1 (STEP)
 LEVEL SHIFTS:                  0.00 (CLOSED)  0.00 (OPEN) 



 Orbital guess generated from atomic densities. Full valence occupancy:   14

 Molecular orbital dump at record        2100.2

 Initial occupancy:   9

 ITERATION    DDIFF          GRAD             ENERGY        2-EL.EN.            DIPOLE MOMENTS         DIIS   ORB.
    1      0.000D+00      0.000D+00      -115.06237395    164.484201    0.00234    0.90376   -0.47786    0    start
    2      0.000D+00      0.506D-02      -115.09072306    161.902403    0.00129    0.49628   -0.30362    1    diag
    3      0.480D-02      0.277D-02      -115.09820807    163.165389    0.00152    0.59963   -0.39682    2    diag
    4      0.163D-02      0.546D-03      -115.09874035    162.988851    0.00150    0.59454   -0.39226    3    diag
    5      0.436D-03      0.110D-03      -115.09877475    163.000324    0.00148    0.59057   -0.39708    4    diag
    6      0.121D-03      0.205D-04      -115.09877631    162.998098    0.00148    0.59071   -0.39787    5    diag
    7      0.349D-04      0.434D-05      -115.09877638    162.997718    0.00148    0.59053   -0.39814    6    diag
    8      0.877D-05      0.114D-05      -115.09877638    162.998062    0.00148    0.59052   -0.39816    0    orth

 Final occupancy:   9

 !RHF STATE  1.1 Energy              -115.098776383599
 Nuclear energy                        40.34545264
 One-electron energy                 -236.94325999
 Two-electron energy                   81.49903097
 Virial quotient                       -1.00101621
 !RHF STATE  1.1 Dipole moment          0.00147868     0.59052417    -0.39815533
 Dipole moment /Debye                   0.00375818     1.50086441    -1.01194362

 Orbital energies:

         1.1          2.1          3.1          4.1          5.1          6.1          7.1          8.1          9.1         10.1
    -20.556344   -11.269749    -1.356922    -0.926376    -0.690703    -0.621727    -0.594373    -0.504151    -0.452253     0.054669

        11.1
      0.065005


 HOMO      9.1    -0.452253 =     -12.3064eV
 LUMO     10.1     0.054669 =       1.4876eV
 LUMO-HOMO         0.506923 =      13.7941eV


 **********************************************************************************************************************************
 DATASETS  * FILE   NREC   LENGTH (MB)   RECORD NAMES
              1      19      550.81       500      610      700      900      950      970     1000      129      960     1100   
                                          VAR    BASINP    GEOM    SYMINP    ZMAT    AOBASIS   BASIS     P2S    ABASIS      S 
                                         1400     1410     1200     1210     1080     1600     1650     1300     1700   
                                           T        V       H0       H01     AOSYM     SMH    MOLCAS    ERIS     OPER   

              2       4        3.48       700     1000      520     2100   
                                         GEOM     BASIS   MCVARS     RHF  

 PROGRAMS   *        TOTAL    HF-SCF       INT
 CPU TIMES  *        17.07      8.11      8.82
 REAL TIME  *        93.28 SEC
 DISK USED  *         2.13 GB
 **********************************************************************************************************************************


 PROGRAM * MP2 (Closed-shell)     Authors: C. Hampel, H.-J. Werner, 1991, M. Deegan, P.J. Knowles, 1992

                                   MP2-F12 implementation by H.-J. Werner, 2007

                   Density fitting integral evaluation by F.R. Manby, 2003,2007, G. Knizia, 2010


 Basis set AUG-CC-PVTZ/JKFIT generated.  Number of basis functions:   392 
 Basis set CC-PVTZ-F12/OPTRI generated.  Number of basis functions:   314 
 Basis set AUG-CC-PVTZ/MP2FIT generated. Number of basis functions:   396 

 Convergence thresholds:  THRVAR = 1.00D-08  THRDEN = 1.00D-06

 Number of core orbitals:           2 (   2 )
 Number of closed-shell orbitals:   7 (   7 )
 Number of external orbitals:     169 ( 169 )

 Molecular orbitals read from record     2100.2  Type=RHF/CANONICAL (state 1.1)

 MP2-F12 correlation treatment (H.-J. Werner, 2006)
 ==================================================

 Using MP2-F12 with ansatz 3C(FIX)

 Using projected zeroth-order Hamiltonian (+Z)

 FOCKRIB=T FOCKRIC=T FOCKRIP=T CABSP=T CABSA=T CABSK=T CABSF=T GBC=F EBC=F DMAT=T NOFIK=T NOPAO=1 SOLVE=-1  USEPAO=0
 EXCH_A= T EXCH_B= F EXCH_C= F EXCH_P= F

 Geminal basis:    OPTFULL  GEM_TYPE=SLATER  BETA=1.0  NGEM=6

 Optimizing Gaussian exponents for each gem_beta

 Geminal optimization for beta= 1.0000
 Weight function:   m=0, omega= 1.4646

 Augmented Hessian optimization of geminal fit. Trust ratio= 0.40000
 Convergence reached after   2 iterations. Final gradient= 8.66D-16, Step= 4.23D-06, Delta= 1.28D-09

 Alpha:                 0.19532     0.81920     2.85917     9.50073    35.69989   197.79328
 Coeff:                 0.27070     0.30552     0.18297     0.10986     0.06810     0.04224


 All pairs explicitly correlated. Number of r12-pairs:           28

 Excluding core orbitals from MO domains

 AO(A)-basis ORBITAL           loaded. Number of functions:     178
 RI(R)-basis CC-PVTZ-F12/OPTRI loaded. Number of functions:     314
 DF-basis AUG-CC-PVTZ/JKFIT    loaded. Number of functions:     392

 Screening thresholds:   THRAO=  1.00D-10  THRMO=  1.00D-09  THRPROD=  1.00D-09
                         THRSW=  1.00D-05  THROV=  1.00D-12  THRAOF12= 1.00D-08

 CPU time for Fock operators                      1.78 sec

 Construction of ABS:
 Smallest eigenvalue of S          4.36E-04  (threshold= 1.00E-08)
 Ratio eigmin/eigmax               5.57E-05  (threshold= 1.00E-09)
 Smallest eigenvalue of S kept     4.36E-04  (threshold= 4.36E-04, 0 functions deleted, 314 kept)

 Construction of CABS:
 Smallest eigenvalue of S          7.26E-07  (threshold= 1.00E-08)
 Ratio eigmin/eigmax               7.26E-07  (threshold= 1.00E-09)
 Smallest eigenvalue of S kept     7.26E-07  (threshold= 7.26E-07, 0 functions deleted, 314 kept)

 CPU time for CABS singles                        0.05 sec

 CABS-singles contribution of  -0.00135363 patched into reference energy.
 New reference energy        -115.10013001

 AO(A)-basis ORBITAL           loaded. Number of functions:     178
 RI(R)-basis CC-PVTZ-F12/OPTRI loaded. Number of functions:     314
 DF-basis AUG-CC-PVTZ/MP2FIT   loaded. Number of functions:     396

 Screening thresholds:   THRAO=  1.00D-10  THRMO=  1.00D-09  THRPROD=  1.00D-09
                         THRSW=  1.00D-05  THROV=  1.00D-12  THRAOF12= 1.00D-08

 CPU time for 3-index integral evaluation         4.29 sec
 CPU time for first  half transformation          0.33 sec ( 7482.0 MFLOP/sec)
 CPU time for second half transformation          0.02 sec ( 3108.5 MFLOP/sec)
 CPU time for sorting                             0.01 sec
 CPU time for fitting                             0.02 sec (56971.3 MFLOP/sec)
 CPU time for tilde quantities                    0.03 sec (50348.4 MFLOP/sec)
 CPU time for assembly                            0.21 sec (58826.6 MFLOP/sec)
 CPU time for tranop_f12                          0.24 sec (66084.3 MFLOP/sec)
 CPU time for f12 integrals (total)               5.58 sec, Elapsed time:      6.53 sec
 CPU time for f12 matrices (total)                0.12 sec, Elapsed time:      0.17 sec

 Diagonal F12 approximation with fixed coefficients:  TSING= 0.500,  TTRIP= 0.250 (scaled by -1/beta)

 DF-MP2-F12 energy corrections:
 ==============================
 Approx.                                    Singlet             Triplet             Total
 DF-MP2-F12/3*C(DX,FIX)                -0.038287481289     -0.004212648904     -0.042500130193
 DF-MP2-F12/3*C(FIX)                   -0.036088680250     -0.003930905612     -0.040019585863
 DF-MP2-F12/3C(FIX)                    -0.036031371831     -0.004065878589     -0.040097250421

 DF-MP2-F12 correlation energies:
 ================================
 Approx.                                    Singlet             Triplet             Ecorr            Total Energy
 DF-MP2                                -0.291095935814     -0.152364923517     -0.443460859331   -115.543590871805
 DF-MP2-F12/3*C(DX,FIX)                -0.329383417104     -0.156577572420     -0.485960989524   -115.586091001998
 DF-MP2-F12/3*C(FIX)                   -0.327184616065     -0.156295829129     -0.483480445193   -115.583610457667
 DF-MP2-F12/3C(FIX)                    -0.327127307646     -0.156430802106     -0.483558109751   -115.583688122225

 SCS-DF-MP2 energies (F_SING= 1.20000  F_TRIP= 0.62222  F_PARALLEL= 0.33333):
 ============================================================================
 SCS-DF-MP2                            -0.444119964276   -115.544249976750
 SCS-DF-MP2-F12/3*C(DX,FIX)            -0.492686145586   -115.592816158060
 SCS-DF-MP2-F12/3*C(FIX)               -0.489872277402   -115.590002289876
 SCS-DF-MP2-F12/3C(FIX)                -0.489887490485   -115.590017502959
 Symmetry transformation completed.

 Number of N-1 electron functions:               7
 Number of N-2 electron functions:              28
 Number of singly external CSFs:              1183
 Number of doubly external CSFs:            700336
 Total number of CSFs:                      701520

 Length of J-op  integral file:             104.98 MB
 Length of K-op  integral file:             138.67 MB

 Integral transformation finished. Total CPU:   1.44 sec, npass=  1  Memory used:   2.18 MW

 ITER.      SQ.NORM     CORR.ENERGY   TOTAL ENERGY   ENERGY CHANGE     VAR   MIC
   1      1.00000000    -0.44352726  -115.54365727    -0.44352726  0.00D+00   0
   2      1.11473644    -0.44352726  -115.54365727     0.00000000 -0.55D-16   0

 Solving MP2-F12 equations

   1      1.11470013    -0.48286649  -115.58299650    -0.03933923 -0.37D-04   0
   2      1.11470013    -0.48362311  -115.58375312    -0.00075662 -0.12D-17   0
   3      1.11470013    -0.48362311  -115.58375312     0.00000000  0.69D-19   0

 CPU TIME FOR ITERATIVE MP2:    0.10 SEC


 MP2-F12 energy corrections:
 ===========================
 Approx.                                    Singlet             Triplet             Total
 MP2-F12/3*C(DX,FIX)                   -0.038287481289     -0.004212648904     -0.042500130193
 MP2-F12/3*C(FIX)                      -0.036088680250     -0.003930905612     -0.040019585863
 MP2-F12/3C(FIX)                       -0.036028670994     -0.004067175360     -0.040095846353

 MP2-F12 correlation energies:
 =============================
 Approx.                                    Singlet             Triplet             Ecorr            Total Energy
 MP2                                   -0.291279251048     -0.152248008688     -0.443527259736   -115.543657272210
 MP2-F12/3*C(DX,FIX)                   -0.329566732337     -0.156460657592     -0.486027389930   -115.586157402404
 MP2-F12/3*C(FIX)                      -0.327367931298     -0.156178914301     -0.483546845599   -115.583676858073
 MP2-F12/3C(FIX)                       -0.327307922042     -0.156315184048     -0.483623106090   -115.583753118564

 SCS-MP2 energies (F_SING= 1.20000  F_TRIP= 0.62222  F_PARALLEL= 0.33333):
 =========================================================================
 SCS-MP2                               -0.444267195553   -115.544397208026
 SCS-MP2-F12/3*C(DX,FIX)               -0.492833376862   -115.592963389336
 SCS-MP2-F12/3*C(FIX)                  -0.490019508678   -115.590149521152
 SCS-MP2-F12/3C(FIX)                   -0.490032287635   -115.590162300109


  Reference energy                   -115.098776383599
  F12 singles correction               -0.001353628875

 F12 singles corrections added to reference energy

  New reference energy               -115.100130012474

  F12/3C(F) singlet correction         -0.036028670994
  F12/3C(F) triplet correction         -0.004067175360
  F12/3C(F) total correction           -0.040095846353
  MP2-F12/3C(F) singlet pair energy    -0.327307922042
  MP2-F12/3C(F) triplet pair energy    -0.156315184048
  MP2-F12/3C(F) correlation energy     -0.483623106090

 !MP2-F12/3C(F) total energy         -115.583753118564


 **********************************************************************************************************************************
 DATASETS  * FILE   NREC   LENGTH (MB)   RECORD NAMES
              1      20      561.98       500      610      700      900      950      970     1000      129      960     1100   
                                          VAR    BASINP    GEOM    SYMINP    ZMAT    AOBASIS   BASIS     P2S    ABASIS      S 
                                         1400     1410     1200     1210     1080     1600     1650     1300     1700     1380   
                                           T        V       H0       H01     AOSYM     SMH    MOLCAS    ERIS     OPER     JKOP   

              2       7        4.13       700     1000      520     2100     7360     7350     7000   
                                         GEOM     BASIS   MCVARS     RHF    F12ABS    EF12   

 PROGRAMS   *        TOTAL   MP2-F12    HF-SCF       INT
 CPU TIMES  *        26.36      9.28      8.11      8.82
 REAL TIME  *       105.15 SEC
 DISK USED  *         2.13 GB
 **********************************************************************************************************************************


 PROGRAM * CCSD (Closed-shell coupled cluster)     Authors: C. Hampel, H.-J. Werner, 1991, M. Deegan, P.J. Knowles, 1992

                                  CCSD-F12 implementation by  H.-J. Werner, 2007

                   Density fitting integral evaluation by F.R. Manby, 2003,2007, G. Knizia, 2010



 Convergence thresholds:  THRVAR = 1.00D-08  THRDEN = 1.00D-06

 CCSD(T)     terms to be evaluated (factor= 1.000)


 Number of core orbitals:           2 (   2 )
 Number of closed-shell orbitals:   7 (   7 )
 Number of external orbitals:     169 ( 169 )

 Molecular orbitals read from record     2100.2  Type=RHF/CANONICAL (state 1.1)

 MP2-F12 correlation treatment (H.-J. Werner, 2006)
 ==================================================

 Using MP2-F12 with ansatz 3C(FIX)

 Using projected zeroth-order Hamiltonian (+Z)

 FOCKRIB=T FOCKRIC=T FOCKRIP=T CABSP=T CABSA=T CABSK=T CABSF=T GBC=F EBC=F DMAT=T NOFIK=T NOPAO=1 SOLVE=-1  USEPAO=0
 EXCH_A= T EXCH_B= F EXCH_C= F EXCH_P= F

 Geminal basis:    OPTFULL  GEM_TYPE=SLATER  BETA=1.0  NGEM=6

 Optimizing Gaussian exponents for each gem_beta

 Geminal optimization for beta= 1.0000
 Weight function:   m=0, omega= 1.4646

 Augmented Hessian optimization of geminal fit. Trust ratio= 0.40000
 Convergence reached after   2 iterations. Final gradient= 8.66D-16, Step= 4.23D-06, Delta= 1.28D-09

 Alpha:                 0.19532     0.81920     2.85917     9.50073    35.69989   197.79328
 Coeff:                 0.27070     0.30552     0.18297     0.10986     0.06810     0.04224


 All pairs explicitly correlated. Number of r12-pairs:           28

 Excluding core orbitals from MO domains

 AO(A)-basis ORBITAL           loaded. Number of functions:     178
 RI(R)-basis CC-PVTZ-F12/OPTRI loaded. Number of functions:     314
 DF-basis AUG-CC-PVTZ/JKFIT    loaded. Number of functions:     392

 Screening thresholds:   THRAO=  1.00D-10  THRMO=  1.00D-09  THRPROD=  1.00D-09
                         THRSW=  1.00D-05  THROV=  1.00D-12  THRAOF12= 1.00D-08

 CPU time for Fock operators                      1.71 sec

 Construction of ABS:
 Smallest eigenvalue of S          4.36E-04  (threshold= 1.00E-08)
 Ratio eigmin/eigmax               5.57E-05  (threshold= 1.00E-09)
 Smallest eigenvalue of S kept     4.36E-04  (threshold= 4.36E-04, 0 functions deleted, 314 kept)

 Construction of CABS:
 Smallest eigenvalue of S          7.26E-07  (threshold= 1.00E-08)
 Ratio eigmin/eigmax               7.26E-07  (threshold= 1.00E-09)
 Smallest eigenvalue of S kept     7.26E-07  (threshold= 7.26E-07, 0 functions deleted, 314 kept)

 CPU time for CABS singles                        0.04 sec

 CABS-singles contribution of  -0.00135363 patched into reference energy.
 New reference energy        -115.10013001

 AO(A)-basis ORBITAL           loaded. Number of functions:     178
 RI(R)-basis CC-PVTZ-F12/OPTRI loaded. Number of functions:     314
 DF-basis AUG-CC-PVTZ/MP2FIT   loaded. Number of functions:     396

 Screening thresholds:   THRAO=  1.00D-10  THRMO=  1.00D-09  THRPROD=  1.00D-09
                         THRSW=  1.00D-05  THROV=  1.00D-12  THRAOF12= 1.00D-08

 CPU time for 3-index integral evaluation         4.20 sec
 CPU time for first  half transformation          0.43 sec ( 5742.0 MFLOP/sec)
 CPU time for second half transformation          0.03 sec ( 2072.3 MFLOP/sec)
 CPU time for sorting                             0.01 sec
 CPU time for fitting                             0.03 sec (37980.8 MFLOP/sec)
 CPU time for tilde quantities                    0.01 sec (******* MFLOP/sec)
 CPU time for assembly                            0.20 sec (61768.0 MFLOP/sec)
 CPU time for tranop_f12                          0.28 sec (56643.7 MFLOP/sec)
 CPU time for f12 integrals (total)               5.66 sec, Elapsed time:      6.04 sec
 CPU time for f12 matrices (total)                0.10 sec, Elapsed time:      0.15 sec

 Diagonal F12 approximation with fixed coefficients:  TSING= 0.500,  TTRIP= 0.250 (scaled by -1/beta)

 DF-MP2-F12 energy corrections:
 ==============================
 Approx.                                    Singlet             Triplet             Total
 DF-MP2-F12/3*C(DX,FIX)                -0.038287481289     -0.004212648904     -0.042500130193
 DF-MP2-F12/3*C(FIX)                   -0.036088680250     -0.003930905612     -0.040019585863
 DF-MP2-F12/3C(FIX)                    -0.036031371831     -0.004065878589     -0.040097250421

 DF-MP2-F12 correlation energies:
 ================================
 Approx.                                    Singlet             Triplet             Ecorr            Total Energy
 DF-MP2                                -0.291095935814     -0.152364923517     -0.443460859331   -115.543590871805
 DF-MP2-F12/3*C(DX,FIX)                -0.329383417104     -0.156577572420     -0.485960989524   -115.586091001998
 DF-MP2-F12/3*C(FIX)                   -0.327184616065     -0.156295829129     -0.483480445193   -115.583610457667
 DF-MP2-F12/3C(FIX)                    -0.327127307646     -0.156430802106     -0.483558109751   -115.583688122225

 SCS-DF-MP2 energies (F_SING= 1.20000  F_TRIP= 0.62222  F_PARALLEL= 0.33333):
 ============================================================================
 SCS-DF-MP2                            -0.444119964276   -115.544249976750
 SCS-DF-MP2-F12/3*C(DX,FIX)            -0.492686145586   -115.592816158060
 SCS-DF-MP2-F12/3*C(FIX)               -0.489872277402   -115.590002289876
 SCS-DF-MP2-F12/3C(FIX)                -0.489887490485   -115.590017502959
 Symmetry transformation completed.

 Number of N-1 electron functions:               7
 Number of N-2 electron functions:              28
 Number of singly external CSFs:              1183
 Number of doubly external CSFs:            700336
 Total number of CSFs:                      701520

 Length of J-op  integral file:             105.23 MB
 Length of K-op  integral file:             138.67 MB
 Length of 3-ext integral record:             0.00 MB

 Memory could be reduced to 48.01 Mwords without degradation in triples

 Integral transformation finished. Total CPU:   3.34 sec, npass=  1  Memory used:  24.86 MW

 Reference energy:                   -115.10013001

 Adding F12 terms to K(Cij), methodcc=6,  factor= 1.0

 ITER.      SQ.NORM     CORR.ENERGY   TOTAL ENERGY   ENERGY CHANGE        DEN1      VAR(S)    VAR(P)  DIIS     TIME  TIME/IT
   1      1.11762397    -0.45285980  -115.55298982    -0.00933254     0.00166866  0.15D-02  0.19D-02  1  1    13.73     3.33
   2      1.12503355    -0.45322167  -115.55335168    -0.00036186    -0.00904633  0.24D-04  0.23D-03  2  2    16.71     3.62
   3      1.12776307    -0.45339909  -115.55352910    -0.00017742    -0.00186513  0.15D-04  0.13D-04  3  3    19.76     3.80
   4      1.12871028    -0.45341697  -115.55354698    -0.00001788    -0.00060016  0.86D-06  0.12D-05  4  4    22.59     3.64
   5      1.12886581    -0.45341852  -115.55354854    -0.00000156    -0.00003790  0.23D-06  0.10D-06  5  5    25.33     3.51
   6      1.12890838    -0.45341617  -115.55354618     0.00000235    -0.00000422  0.36D-07  0.96D-08  6  6    28.22     3.45
   7      1.12891950    -0.45341530  -115.55354531     0.00000087    -0.00000298  0.39D-08  0.14D-08  6  1    31.09     3.40
   8      1.12892130    -0.45341536  -115.55354537    -0.00000006     0.00000033  0.67D-09  0.20D-09  6  3    34.10     3.38

 Norm of t1 vector:      0.05000537      S-energy:     0.00000010      T1 diagnostic:  0.00945013
                                                                       D1 diagnostic:  0.02003363

 Adding energy correction from Wij-K(Fij), methodcc=6  factor= 1.0

  CCSD correlation energy              -0.453415358392
  MP2-F12 correction (uncoupled)       -0.038545643509
  C*T doubles correction               -0.001164846144
  f12b correction                       0.007098777744


 Total CPU time for triples:     36.64 sec


 RESULTS
 =======

  Reference energy                   -115.098776383599
  F12 singles correction               -0.001353628875

 F12 singles corrections added to reference energy

  New reference energy               -115.100130012474

  F12a singlet correction              -0.035791903372
  F12a triplet correction              -0.003918586281
  F12a total correction                -0.039710489653

 F12a corrections for ansatz F12/3C(FIX) added to CCSD energy

  CCSD-F12a singlet pair energy        -0.351209889463
  CCSD-F12a triplet pair energy        -0.141916060688
  CCSD-F12a correlation energy         -0.493125848045

  Triples (T) contribution             -0.016014618590
  Total correlation energy             -0.509140466635

  CCSD-F12a total energy             -115.593255860519
  CCSD[T]-F12a energy                -115.609823556198
  CCSD-T-F12a energy                 -115.609026754422
 !CCSD(T)-F12a total energy          -115.609270479109

 F12b corrections for ansatz F12/3C(FIX) added to CCSD(T)-F12a energy

  CCSD-F12b singlet pair energy        -0.344573196581
  CCSD-F12b triplet pair energy        -0.141453975825
  CCSD-F12b correlation energy         -0.486027070301

  Triples (T) contribution             -0.016014618590
  Total correlation energy             -0.502041688891

  CCSD-F12b total energy             -115.586157082775
  CCSD[T]-F12b energy                -115.602724778454
  CCSD-T-F12b energy                 -115.601927976678
 !CCSD(T)-F12b total energy          -115.602171701365

 Timing summary (sec):

 STEP                 CPU(USER)    SYS     CPU(TOT)    WALL
 Transformation          3.38      1.72      5.10      8.25
 CCSD iterations        23.14      2.05     25.19     27.14
 Triples                36.64      1.03     37.67     38.00
 MP2-F12                 7.60      0.48      8.08      8.17
 F12b energy             2.23      0.11      2.34      2.38

 Program statistics:

 Available memory in ccsd:               499999646
 Min. memory needed in ccsd:               2228017
 Max. memory used in ccsd:                 2807120
 Max. memory used in cckext:               2027429 ( 9 integral passes)



 **********************************************************************************************************************************
 DATASETS  * FILE   NREC   LENGTH (MB)   RECORD NAMES
              1      20      697.93       500      610      700      900      950      970     1000      129      960     1100   
                                          VAR    BASINP    GEOM    SYMINP    ZMAT    AOBASIS   BASIS     P2S    ABASIS      S 
                                         1400     1410     1200     1210     1080     1600     1650     1300     1700     1380   
                                           T        V       H0       H01     AOSYM     SMH    MOLCAS    ERIS     OPER     JKOP   

              2       7        4.13       700     1000      520     2100     7360     7350     7000   
                                         GEOM     BASIS   MCVARS     RHF    F12ABS    EF12   

 PROGRAMS   *        TOTAL   CCSD(T)   MP2-F12    HF-SCF       INT
 CPU TIMES  *        99.38     73.02      9.28      8.11      8.82
 REAL TIME  *       189.29 SEC
 DISK USED  *         2.13 GB
 **********************************************************************************************************************************
 SETTING XXX            =    "MMM"
 SETTING POINT          =        98.00000000                                  

 *** ### CH3OH


 XXX       RCO          ROH          RCH1         RCH2         RCH3           ACOH           AOCH1          AOCH2          AOCH3         AHH1           AHH2           AHH3            ENERGY       POINT
 "MMM"   1.42077677   0.96013932   1.09171752   1.08440070   1.09171752   108.12930637   111.65221523   107.18733878   111.65221523   61.55149392   179.94107443   298.50743164   -115.60927048   98.0000
                                                  

 CCSD(T)-F12/cc-pVTZ-F12 energy=   -115.602171701365

     CCSD(T)-F12         MP2-F12          HF-SCF
   -115.60217170   -115.58375312   -115.09877638
 **********************************************************************************************************************************
 Molpro calculation terminated
