
 Primary working directories    : /tmpdir/job/2955609.undefined/molpro.vw1ig9bsve
 Secondary working directories  : /tmpdir/job/2955609.undefined/molpro.vw1ig9bsve
 Wavefunction directory         : /home/zcaposm/wfu/
 Main file repository           : /tmpdir/job/2955609.undefined/molpro.vw1ig9bsve/

 id        : uclcc

 Nodes                         nprocs
 node-d00a-252.myriad.ucl.ac.uk    1

 Using customized tuning parameters: mindgm=1; mindgv=20; mindgc=4; mindgr=1; noblas=0; minvec=7
 default implementation of scratch files=df  


 Variables initialized (945), CPU time= 0.00 sec
 ***,Methanol Ground State Energy with CCSD(T)-F12 and cc-pVTZ-F12
 memory,500,m;
 
 geometry={angstrom
 c
 o , 1, rco
 h , 2, roh, 1, acoh
 h1, 1, rch1, 2, aoch1  3  ahh1
 h2, 1, rch2, 2, aoch2, 3, ahh2
 h3, 1, rch3, 2, aoch3, 3, ahh3
 }
 
                                                ! Specify the initial values of the internal coordinates (in Angstroms and degrees)
 
 rco= 1.42077677
 roh= 0.96013932
 rch1= 1.091717515605
 rch2= 1.10440070258
 rch3= 1.091717515605
 acoh= 108.12930637
 aoch1= 111.6522152299
 aoch2= 107.18733878260001
 aoch3= 111.6522152299
 ahh1=61.43364279
 ahh2=180.0
 ahh3=298.56635721
 
                                                                                 ! Use the cc-pVTZ-F12 basis set
 basis=cc-pVTZ-F12
 
 hf
 
                                                                                 ! Use explicitly correlated F12 methods
                                                                            ! First, MP2-F12 (useful for initial electronic energy)
 {mp2-f12}
 
                                                                        ! If desired, perform CCSD(T)-F12 for more accurate results
 {ccsd(t)-f12}
 
                                                                                 ! Output the energy
 xxx = "mmm"
 point = 44
 text ### CH3OH
 table,xxx,rco,roh,rch1,rch2,rch3,acoh,aoch1,aoch2,aoch3,ahh1,ahh2,ahh3,energy,point
 DIGITS, 0, 8, 8, 8, 8, 8, 8, 8, 8, 8,  8,  8,  8, 8, 4
 save,CH3OH_MEP_MP2_44.dat,new
 
 Commands  initialized (802), CPU time= 0.01 sec, 659 directives.
 Default parameters read. Elapsed time= 0.09 sec

 Checking input...
 Passed
1


                                         ***  PROGRAM SYSTEM MOLPRO  ***
                                       Copyright, TTI GmbH Stuttgart, 2015
                                    Version 2020.1 linked Oct  6 2020 12:04:11


 **********************************************************************************************************************************
 LABEL *   Methanol Ground State Energy with CCSD(T)-F12 and cc-pVTZ-F12                 
  64 bit serial version                                                                  DATE: 08-Oct-24          TIME: 17:15:51  
 **********************************************************************************************************************************

 SHA1:             8c27446f6450a7499e38f603e13c65f775101d37
 **********************************************************************************************************************************

 Memory per process:       500 MW
 Total memory per node:    500 MW

 GA preallocation disabled
 GA check disabled

 Variable memory set to 500.0 MW

 SETTING RCO            =         1.42077677                                  
 SETTING ROH            =         0.96013932                                  
 SETTING RCH1           =         1.09171752                                  
 SETTING RCH2           =         1.10440070                                  
 SETTING RCH3           =         1.09171752                                  
 SETTING ACOH           =       108.12930637                                  
 SETTING AOCH1          =       111.65221523                                  
 SETTING AOCH2          =       107.18733878                                  
 SETTING AOCH3          =       111.65221523                                  
 SETTING AHH1           =        61.43364279                                  
 SETTING AHH2           =       180.00000000                                  
 SETTING AHH3           =       298.56635721                                  
 SETTING BASIS          =    CC-PVTZ-F12


 Recomputing integrals since basis changed


 Using spherical harmonics

 Library entry C      S cc-pVTZ-F12          selected for orbital group  1
 Library entry C      P cc-pVTZ-F12          selected for orbital group  1
 Library entry C      D cc-pVTZ-F12          selected for orbital group  1
 Library entry C      F cc-pVTZ-F12          selected for orbital group  1
 Library entry O      S cc-pVTZ-F12          selected for orbital group  2
 Library entry O      P cc-pVTZ-F12          selected for orbital group  2
 Library entry O      D cc-pVTZ-F12          selected for orbital group  2
 Library entry O      F cc-pVTZ-F12          selected for orbital group  2
 Library entry H      S cc-pVTZ-F12          selected for orbital group  3
 Library entry H      P cc-pVTZ-F12          selected for orbital group  3
 Library entry H      D cc-pVTZ-F12          selected for orbital group  3


 PROGRAM * SEWARD (Integral evaluation for generally contracted gaussian basis sets)     Author: Roland Lindh, 1990

 Geometry written to block  1 of record 700

 Orientation using atomic masses  
 Molecule type: Asymmetric top
 Symmetry elements: X
 Rotational constants:      23.8975901     24.7892099    127.5389041 GHz  (calculated with average atomic masses)

 Point group  Cs  



 ATOMIC COORDINATES

 NR  ATOM    CHARGE       X              Y              Z

   1  C       6.00    0.000000000    0.028649656   -1.376131970
   2  O       8.00    0.000000000   -0.123163020    1.304451557
   3  H       1.00    0.000000000    1.566482809    1.965621449
   4  H1      1.00    1.684053272    0.987117344   -2.084275772
   5  H3      1.00   -1.684053272    0.987117344   -2.084275772
   6  H2      1.00    0.000000000   -1.927106170   -2.104589362

 Bond lengths in Bohr (Angstrom)

 1-2  2.684878979  1-4  2.063047110  1-5  2.063047110  1-6  2.087014860  2-3  1.814400356
     ( 1.420776770)     ( 1.091717516)     ( 1.091717516)     ( 1.104400703)     ( 0.960139320)

 Bond angles

  1-2-3  108.12930637   2-1-4  111.65221523   2-1-5  111.65221523   2-1-6  107.18733878

  4-1-5  109.43105099   4-1-6  108.39459424   5-1-6  108.39459424

 NUCLEAR CHARGE:                   18
 NUMBER OF PRIMITIVE AOS:         228
 NUMBER OF SYMMETRY AOS:          206
 NUMBER OF CONTRACTIONS:          178   (  114A'  +   64A"  )
 NUMBER OF INNER CORE ORBITALS:     0   (    0A'  +    0A"  )
 NUMBER OF OUTER CORE ORBITALS:     2   (    2A'  +    0A"  )
 NUMBER OF VALENCE ORBITALS:       12   (    9A'  +    3A"  )


 NUCLEAR REPULSION ENERGY   40.27064056

 Eigenvalues of metric

         1 0.895E-04 0.184E-03 0.318E-03 0.460E-03 0.493E-03 0.565E-03 0.617E-03 0.623E-03
         2 0.323E-03 0.570E-03 0.686E-03 0.178E-02 0.340E-02 0.494E-02 0.660E-02 0.872E-02


 Contracted 2-electron integrals neglected if value below      1.0D-11
 AO integral compression algorithm  1   Integral accuracy      1.0D-11

     331.612 MB (compressed) written to integral file ( 53.5%)


 NUMBER OF SORTED TWO-ELECTRON INTEGRALS:   64554730.     BUFFER LENGTH:  32768
 NUMBER OF SEGMENTS:   5  SEGMENT LENGTH:   15997996      RECORD LENGTH: 524288

 Memory used in sort:      16.56 MW

 SORT1 READ    77497885. AND WROTE    63551625. INTEGRALS IN    184 RECORDS. CPU TIME:     1.33 SEC, REAL TIME:    11.55 SEC
 SORT2 READ    63551625. AND WROTE    64554730. INTEGRALS IN   1265 RECORDS. CPU TIME:     1.28 SEC, REAL TIME:    13.92 SEC

 FILE SIZES:   FILE 1:   362.5 MBYTE,  FILE 4:   771.8 MBYTE,   TOTAL:   1134.3 MBYTE

 OPERATOR DM      FOR CENTER  0  COORDINATES:    0.000000    0.000000    0.000000


 **********************************************************************************************************************************
 DATASETS  * FILE   NREC   LENGTH (MB)   RECORD NAMES
              1      19      311.79       500      610      700      900      950      970     1000      129      960     1100   
                                          VAR    BASINP    GEOM    SYMINP    ZMAT    AOBASIS   BASIS     P2S    ABASIS      S 
                                         1400     1410     1200     1210     1080     1600     1650     1300     1700   
                                           T        V       H0       H01     AOSYM     SMH    MOLCAS    ERIS     OPER   

 PROGRAMS   *        TOTAL       INT
 CPU TIMES  *         6.87      6.76
 REAL TIME  *        46.61 SEC
 DISK USED  *         1.13 GB
 **********************************************************************************************************************************


 PROGRAM * RHF-SCF (CLOSED SHELL)       Authors: W. Meyer, H.-J. Werner


 NUMBER OF ELECTRONS:       9+    9-
 CONVERGENCE THRESHOLDS:    1.00E-05 (Density)    1.00E-07 (Energy)
 MAX. NUMBER OF ITERATIONS:       60
 INTERPOLATION TYPE:            DIIS
 INTERPOLATION STEPS:              2 (START)      1 (STEP)
 LEVEL SHIFTS:                  0.00 (CLOSED)  0.00 (OPEN) 



 Orbital guess generated from atomic densities. Full valence occupancy:   11   3

 Molecular orbital dump at record        2100.2

 Initial occupancy:   7   2

 ITERATION    DDIFF          GRAD             ENERGY        2-EL.EN.            DIPOLE MOMENTS         DIIS   ORB.
    1      0.000D+00      0.000D+00      -115.06197045    164.333629    0.00000    0.90046   -0.47658    0    start
    2      0.000D+00      0.669D-02      -115.09028841    161.767341    0.00000    0.50018   -0.29919    1    diag
    3      0.652D-02      0.367D-02      -115.09783301    163.025416    0.00000    0.60453   -0.39270    2    diag
    4      0.222D-02      0.718D-03      -115.09836440    162.849468    0.00000    0.60037   -0.38794    3    diag
    5      0.593D-03      0.145D-03      -115.09839868    162.861661    0.00000    0.59677   -0.39259    4    diag
    6      0.166D-03      0.269D-04      -115.09840024    162.858957    0.00000    0.59699   -0.39334    5    diag
    7      0.477D-04      0.562D-05      -115.09840031    162.858862    0.00000    0.59683   -0.39360    6    diag
    8      0.120D-04      0.135D-05      -115.09840031    162.859075    0.00000    0.59682   -0.39362    7    diag
    9      0.225D-05      0.385D-06      -115.09840031    162.858948    0.00000    0.59680   -0.39362    0    orth

 Final occupancy:   7   2

 !RHF STATE  1.1 Energy              -115.098400312065
 Nuclear energy                        40.27064056
 One-electron energy                 -236.79851505
 Two-electron energy                   81.42947418
 Virial quotient                       -1.00126792
 !RHF STATE  1.1 Dipole moment          0.00000000     0.59680204    -0.39362420
 Dipole moment /Debye                   0.00000000     1.51682012    -1.00042739

 Orbital energies:

         1.1          2.1          3.1          4.1          5.1          6.1          7.1          8.1          9.1
    -20.556672   -11.272254    -1.357161    -0.924070    -0.690865    -0.591942    -0.502499     0.054595     0.065109

         1.2          2.2          3.2          4.2
     -0.621882    -0.452439     0.073800     0.181462


 HOMO      2.2    -0.452439 =     -12.3115eV
 LUMO      8.1     0.054595 =       1.4856eV
 LUMO-HOMO         0.507033 =      13.7971eV


 **********************************************************************************************************************************
 DATASETS  * FILE   NREC   LENGTH (MB)   RECORD NAMES
              1      19      311.79       500      610      700      900      950      970     1000      129      960     1100   
                                          VAR    BASINP    GEOM    SYMINP    ZMAT    AOBASIS   BASIS     P2S    ABASIS      S 
                                         1400     1410     1200     1210     1080     1600     1650     1300     1700   
                                           T        V       H0       H01     AOSYM     SMH    MOLCAS    ERIS     OPER   

              2       4        3.18       700     1000      520     2100   
                                         GEOM     BASIS   MCVARS     RHF  

 PROGRAMS   *        TOTAL    HF-SCF       INT
 CPU TIMES  *         9.56      2.69      6.76
 REAL TIME  *        51.08 SEC
 DISK USED  *         1.13 GB
 **********************************************************************************************************************************


 PROGRAM * MP2 (Closed-shell)     Authors: C. Hampel, H.-J. Werner, 1991, M. Deegan, P.J. Knowles, 1992

                                   MP2-F12 implementation by H.-J. Werner, 2007

                   Density fitting integral evaluation by F.R. Manby, 2003,2007, G. Knizia, 2010


 Basis set AUG-CC-PVTZ/JKFIT generated.  Number of basis functions:   392 
 Basis set CC-PVTZ-F12/OPTRI generated.  Number of basis functions:   314 
 Basis set AUG-CC-PVTZ/MP2FIT generated. Number of basis functions:   396 

 Convergence thresholds:  THRVAR = 1.00D-08  THRDEN = 1.00D-06

 Number of core orbitals:           2 (   2   0 )
 Number of closed-shell orbitals:   7 (   5   2 )
 Number of external orbitals:     169 ( 107  62 )

 Molecular orbitals read from record     2100.2  Type=RHF/CANONICAL (state 1.1)

 MP2-F12 correlation treatment (H.-J. Werner, 2006)
 ==================================================

 Using MP2-F12 with ansatz 3C(FIX)

 Using projected zeroth-order Hamiltonian (+Z)

 FOCKRIB=T FOCKRIC=T FOCKRIP=T CABSP=T CABSA=T CABSK=T CABSF=T GBC=F EBC=F DMAT=T NOFIK=T NOPAO=1 SOLVE=-1  USEPAO=0
 EXCH_A= T EXCH_B= F EXCH_C= F EXCH_P= F

 Geminal basis:    OPTFULL  GEM_TYPE=SLATER  BETA=1.0  NGEM=6

 Optimizing Gaussian exponents for each gem_beta

 Geminal optimization for beta= 1.0000
 Weight function:   m=0, omega= 1.4646

 Augmented Hessian optimization of geminal fit. Trust ratio= 0.40000
 Convergence reached after   2 iterations. Final gradient= 8.66D-16, Step= 4.23D-06, Delta= 1.28D-09

 Alpha:                 0.19532     0.81920     2.85917     9.50073    35.69989   197.79328
 Coeff:                 0.27070     0.30552     0.18297     0.10986     0.06810     0.04224


 Symmetry turned off. Reference energy:       -115.098400312064

 All pairs explicitly correlated. Number of r12-pairs:           28

 Excluding core orbitals from MO domains

 AO(A)-basis ORBITAL           loaded. Number of functions:     178
 RI(R)-basis CC-PVTZ-F12/OPTRI loaded. Number of functions:     314
 DF-basis AUG-CC-PVTZ/JKFIT    loaded. Number of functions:     392

 Screening thresholds:   THRAO=  1.00D-10  THRMO=  1.00D-09  THRPROD=  1.00D-09
                         THRSW=  1.00D-05  THROV=  1.00D-12  THRAOF12= 1.00D-08

 CPU time for Fock operators                      4.99 sec

 Construction of ABS:
 Smallest eigenvalue of S          4.41E-04  (threshold= 1.00E-08)
 Ratio eigmin/eigmax               5.66E-05  (threshold= 1.00E-09)
 Smallest eigenvalue of S kept     4.41E-04  (threshold= 4.41E-04, 0 functions deleted, 314 kept)

 Construction of CABS:
 Smallest eigenvalue of S          7.54E-07  (threshold= 1.00E-08)
 Ratio eigmin/eigmax               7.54E-07  (threshold= 1.00E-09)
 Smallest eigenvalue of S kept     7.54E-07  (threshold= 7.54E-07, 0 functions deleted, 314 kept)

 CPU time for CABS singles                        0.04 sec

 CABS-singles contribution of  -0.00134718 patched into reference energy.
 New reference energy        -115.09974749

 AO(A)-basis ORBITAL           loaded. Number of functions:     178
 RI(R)-basis CC-PVTZ-F12/OPTRI loaded. Number of functions:     314
 DF-basis AUG-CC-PVTZ/MP2FIT   loaded. Number of functions:     396

 Screening thresholds:   THRAO=  1.00D-10  THRMO=  1.00D-09  THRPROD=  1.00D-09
                         THRSW=  1.00D-05  THROV=  1.00D-12  THRAOF12= 1.00D-08

 CPU time for 3-index integral evaluation         3.17 sec
 CPU time for first  half transformation          0.23 sec (10735.0 MFLOP/sec)
 CPU time for second half transformation          0.02 sec ( 3108.5 MFLOP/sec)
 CPU time for fitting                             0.02 sec (56971.3 MFLOP/sec)
 CPU time for tilde quantities                    0.02 sec (75522.6 MFLOP/sec)
 CPU time for assembly                            0.19 sec (65018.9 MFLOP/sec)
 CPU time for tranop_f12                          0.21 sec (75524.9 MFLOP/sec)
 CPU time for f12 integrals (total)               6.52 sec, Elapsed time:      6.94 sec
 CPU time for f12 matrices (total)                0.10 sec, Elapsed time:      0.12 sec

 Diagonal F12 approximation with fixed coefficients:  TSING= 0.500,  TTRIP= 0.250 (scaled by -1/beta)

 DF-MP2-F12 energy corrections:
 ==============================
 Approx.                                    Singlet             Triplet             Total
 DF-MP2-F12/3*C(DX,FIX)                -0.038248503711     -0.004207755439     -0.042456259149
 DF-MP2-F12/3*C(FIX)                   -0.036058528074     -0.003927147224     -0.039985675298
 DF-MP2-F12/3C(FIX)                    -0.036001606753     -0.004062314593     -0.040063921345

 DF-MP2-F12 correlation energies:
 ================================
 Approx.                                    Singlet             Triplet             Ecorr            Total Energy
 DF-MP2                                -0.291256309089     -0.152365957103     -0.443622266192   -115.543369756194
 DF-MP2-F12/3*C(DX,FIX)                -0.329504812799     -0.156573712542     -0.486078525342   -115.585826015344
 DF-MP2-F12/3*C(FIX)                   -0.327314837163     -0.156293104327     -0.483607941490   -115.583355431492
 DF-MP2-F12/3C(FIX)                    -0.327257915841     -0.156428271696     -0.483686187537   -115.583433677540

 SCS-DF-MP2 energies (F_SING= 1.20000  F_TRIP= 0.62222  F_PARALLEL= 0.33333):
 ============================================================================
 SCS-DF-MP2                            -0.444313055326   -115.544060545329
 SCS-DF-MP2-F12/3*C(DX,FIX)            -0.492829418719   -115.592576908721
 SCS-DF-MP2-F12/3*C(FIX)               -0.490026847288   -115.589774337290
 SCS-DF-MP2-F12/3C(FIX)                -0.490042645843   -115.589790135845

 Symmetry restored.
 Symmetry transformation completed.

 Number of N-1 electron functions:               7
 Number of N-2 electron functions:              28
 Number of singly external CSFs:               659
 Number of doubly external CSFs:            355020
 Total number of CSFs:                      355680

 Length of J-op  integral file:             103.49 MB
 Length of K-op  integral file:             127.95 MB

 Integral transformation finished. Total CPU:   0.41 sec, npass=  1  Memory used:   0.67 MW

 ITER.      SQ.NORM     CORR.ENERGY   TOTAL ENERGY   ENERGY CHANGE     VAR   MIC
   1      1.00000000    -0.44368890  -115.54343639    -0.44368890  0.00D+00   0
   2      1.11507370    -0.44368890  -115.54343639     0.00000000 -0.28D-18   0

 Solving MP2-F12 equations

   1      1.11503706    -0.48299450  -115.58274199    -0.03930560 -0.37D-04   0
   2      1.11503706    -0.48375140  -115.58349889    -0.00075691  0.75D-20   0
   3      1.11503706    -0.48375140  -115.58349889     0.00000000 -0.13D-19   0

 CPU TIME FOR ITERATIVE MP2:    0.03 SEC


 MP2-F12 energy corrections:
 ===========================
 Approx.                                    Singlet             Triplet             Total
 MP2-F12/3*C(DX,FIX)                   -0.038248503711     -0.004207755439     -0.042456259149
 MP2-F12/3*C(FIX)                      -0.036058528074     -0.003927147224     -0.039985675298
 MP2-F12/3C(FIX)                       -0.035998903388     -0.004063600058     -0.040062503446

 MP2-F12 correlation energies:
 =============================
 Approx.                                    Singlet             Triplet             Ecorr            Total Energy
 MP2                                   -0.291439776897     -0.152249121371     -0.443688898267   -115.543436388269
 MP2-F12/3*C(DX,FIX)                   -0.329688280607     -0.156456876810     -0.486145157417   -115.585892647419
 MP2-F12/3*C(FIX)                      -0.327498304971     -0.156176268594     -0.483674573565   -115.583422063567
 MP2-F12/3C(FIX)                       -0.327438680284     -0.156312721429     -0.483751401713   -115.583498891715

 SCS-MP2 energies (F_SING= 1.20000  F_TRIP= 0.62222  F_PARALLEL= 0.33333):
 =========================================================================
 SCS-MP2                               -0.444460518906   -115.544208008909
 SCS-MP2-F12/3*C(DX,FIX)               -0.492976882299   -115.592724372301
 SCS-MP2-F12/3*C(FIX)                  -0.490174310868   -115.589921800870
 SCS-MP2-F12/3C(FIX)                   -0.490187665230   -115.589935155233


  Reference energy                   -115.098400312064
  F12 singles correction               -0.001347177938

 F12 singles corrections added to reference energy

  New reference energy               -115.099747490002

  F12/3C(F) singlet correction         -0.035998903388
  F12/3C(F) triplet correction         -0.004063600058
  F12/3C(F) total correction           -0.040062503446
  MP2-F12/3C(F) singlet pair energy    -0.327438680284
  MP2-F12/3C(F) triplet pair energy    -0.156312721429
  MP2-F12/3C(F) correlation energy     -0.483751401713

 !MP2-F12/3C(F) total energy         -115.583498891715


 **********************************************************************************************************************************
 DATASETS  * FILE   NREC   LENGTH (MB)   RECORD NAMES
              1      20      317.53       500      610      700      900      950      970     1000      129      960     1100   
                                          VAR    BASINP    GEOM    SYMINP    ZMAT    AOBASIS   BASIS     P2S    ABASIS      S 
                                         1400     1410     1200     1210     1080     1600     1650     1300     1700     1380   
                                           T        V       H0       H01     AOSYM     SMH    MOLCAS    ERIS     OPER     JKOP   

              2       7        3.55       700     1000      520     2100     7360     7350     7000   
                                         GEOM     BASIS   MCVARS     RHF    F12ABS    EF12   

 PROGRAMS   *        TOTAL   MP2-F12    HF-SCF       INT
 CPU TIMES  *        21.83     12.27      2.69      6.76
 REAL TIME  *        64.55 SEC
 DISK USED  *         1.13 GB
 **********************************************************************************************************************************


 PROGRAM * CCSD (Closed-shell coupled cluster)     Authors: C. Hampel, H.-J. Werner, 1991, M. Deegan, P.J. Knowles, 1992

                                  CCSD-F12 implementation by  H.-J. Werner, 2007

                   Density fitting integral evaluation by F.R. Manby, 2003,2007, G. Knizia, 2010



 Convergence thresholds:  THRVAR = 1.00D-08  THRDEN = 1.00D-06

 CCSD(T)     terms to be evaluated (factor= 1.000)


 Number of core orbitals:           2 (   2   0 )
 Number of closed-shell orbitals:   7 (   5   2 )
 Number of external orbitals:     169 ( 107  62 )

 Molecular orbitals read from record     2100.2  Type=RHF/CANONICAL (state 1.1)

 MP2-F12 correlation treatment (H.-J. Werner, 2006)
 ==================================================

 Using MP2-F12 with ansatz 3C(FIX)

 Using projected zeroth-order Hamiltonian (+Z)

 FOCKRIB=T FOCKRIC=T FOCKRIP=T CABSP=T CABSA=T CABSK=T CABSF=T GBC=F EBC=F DMAT=T NOFIK=T NOPAO=1 SOLVE=-1  USEPAO=0
 EXCH_A= T EXCH_B= F EXCH_C= F EXCH_P= F

 Geminal basis:    OPTFULL  GEM_TYPE=SLATER  BETA=1.0  NGEM=6

 Optimizing Gaussian exponents for each gem_beta

 Geminal optimization for beta= 1.0000
 Weight function:   m=0, omega= 1.4646

 Augmented Hessian optimization of geminal fit. Trust ratio= 0.40000
 Convergence reached after   2 iterations. Final gradient= 8.66D-16, Step= 4.23D-06, Delta= 1.28D-09

 Alpha:                 0.19532     0.81920     2.85917     9.50073    35.69989   197.79328
 Coeff:                 0.27070     0.30552     0.18297     0.10986     0.06810     0.04224


 Symmetry turned off. Reference energy:       -115.098400312064

 All pairs explicitly correlated. Number of r12-pairs:           28

 Excluding core orbitals from MO domains

 AO(A)-basis ORBITAL           loaded. Number of functions:     178
 RI(R)-basis CC-PVTZ-F12/OPTRI loaded. Number of functions:     314
 DF-basis AUG-CC-PVTZ/JKFIT    loaded. Number of functions:     392

 Screening thresholds:   THRAO=  1.00D-10  THRMO=  1.00D-09  THRPROD=  1.00D-09
                         THRSW=  1.00D-05  THROV=  1.00D-12  THRAOF12= 1.00D-08

 CPU time for Fock operators                      4.97 sec

 Construction of ABS:
 Smallest eigenvalue of S          4.41E-04  (threshold= 1.00E-08)
 Ratio eigmin/eigmax               5.66E-05  (threshold= 1.00E-09)
 Smallest eigenvalue of S kept     4.41E-04  (threshold= 4.41E-04, 0 functions deleted, 314 kept)

 Construction of CABS:
 Smallest eigenvalue of S          7.54E-07  (threshold= 1.00E-08)
 Ratio eigmin/eigmax               7.54E-07  (threshold= 1.00E-09)
 Smallest eigenvalue of S kept     7.54E-07  (threshold= 7.54E-07, 0 functions deleted, 314 kept)

 CPU time for CABS singles                        0.04 sec

 CABS-singles contribution of  -0.00134718 patched into reference energy.
 New reference energy        -115.09974749

 AO(A)-basis ORBITAL           loaded. Number of functions:     178
 RI(R)-basis CC-PVTZ-F12/OPTRI loaded. Number of functions:     314
 DF-basis AUG-CC-PVTZ/MP2FIT   loaded. Number of functions:     396

 Screening thresholds:   THRAO=  1.00D-10  THRMO=  1.00D-09  THRPROD=  1.00D-09
                         THRSW=  1.00D-05  THROV=  1.00D-12  THRAOF12= 1.00D-08

 CPU time for 3-index integral evaluation         3.20 sec
 CPU time for first  half transformation          0.28 sec ( 8818.0 MFLOP/sec)
 CPU time for fitting                             0.01 sec (******* MFLOP/sec)
 CPU time for tilde quantities                    0.02 sec (75522.6 MFLOP/sec)
 CPU time for assembly                            0.19 sec (65018.9 MFLOP/sec)
 CPU time for tranop_f12                          0.24 sec (66084.3 MFLOP/sec)
 CPU time for f12 integrals (total)               6.54 sec, Elapsed time:      6.94 sec
 CPU time for f12 matrices (total)                0.11 sec, Elapsed time:      0.14 sec

 Diagonal F12 approximation with fixed coefficients:  TSING= 0.500,  TTRIP= 0.250 (scaled by -1/beta)

 DF-MP2-F12 energy corrections:
 ==============================
 Approx.                                    Singlet             Triplet             Total
 DF-MP2-F12/3*C(DX,FIX)                -0.038248503711     -0.004207755439     -0.042456259149
 DF-MP2-F12/3*C(FIX)                   -0.036058528074     -0.003927147224     -0.039985675298
 DF-MP2-F12/3C(FIX)                    -0.036001606753     -0.004062314593     -0.040063921345

 DF-MP2-F12 correlation energies:
 ================================
 Approx.                                    Singlet             Triplet             Ecorr            Total Energy
 DF-MP2                                -0.291256309089     -0.152365957103     -0.443622266192   -115.543369756194
 DF-MP2-F12/3*C(DX,FIX)                -0.329504812799     -0.156573712542     -0.486078525342   -115.585826015344
 DF-MP2-F12/3*C(FIX)                   -0.327314837163     -0.156293104327     -0.483607941490   -115.583355431492
 DF-MP2-F12/3C(FIX)                    -0.327257915841     -0.156428271696     -0.483686187537   -115.583433677540

 SCS-DF-MP2 energies (F_SING= 1.20000  F_TRIP= 0.62222  F_PARALLEL= 0.33333):
 ============================================================================
 SCS-DF-MP2                            -0.444313055326   -115.544060545329
 SCS-DF-MP2-F12/3*C(DX,FIX)            -0.492829418719   -115.592576908721
 SCS-DF-MP2-F12/3*C(FIX)               -0.490026847288   -115.589774337290
 SCS-DF-MP2-F12/3C(FIX)                -0.490042645843   -115.589790135845

 Symmetry restored.
 Symmetry transformation completed.

 Number of N-1 electron functions:               7
 Number of N-2 electron functions:              28
 Number of singly external CSFs:               659
 Number of doubly external CSFs:            355020
 Total number of CSFs:                      355680

 Length of J-op  integral file:             103.62 MB
 Length of K-op  integral file:             127.95 MB
 Length of 3-ext integral record:             0.00 MB

 Memory could be reduced to 24.20 Mwords without degradation in triples

 Integral transformation finished. Total CPU:   1.22 sec, npass=  1  Memory used:   7.45 MW

 Reference energy:                   -115.09974749

 Adding F12 terms to K(Cij), methodcc=6,  factor= 1.0

 ITER.      SQ.NORM     CORR.ENERGY   TOTAL ENERGY   ENERGY CHANGE        DEN1      VAR(S)    VAR(P)  DIIS     TIME  TIME/IT
   1      1.11802509    -0.45305625  -115.55280374    -0.00936735     0.00168662  0.15D-02  0.19D-02  1  1    13.78     0.97
   2      1.12550145    -0.45343043  -115.55317792    -0.00037419    -0.00908718  0.24D-04  0.23D-03  2  2    14.52     0.91
   3      1.12827329    -0.45361136  -115.55335885    -0.00018093    -0.00188548  0.15D-04  0.14D-04  3  3    15.33     0.91
   4      1.12923531    -0.45362924  -115.55337673    -0.00001787    -0.00060727  0.86D-06  0.12D-05  4  4    16.19     0.92
   5      1.12939260    -0.45363095  -115.55337844    -0.00000171    -0.00003827  0.23D-06  0.10D-06  5  5    16.94     0.91
   6      1.12943550    -0.45362861  -115.55337610     0.00000234    -0.00000426  0.35D-07  0.97D-08  6  6    17.74     0.91
   7      1.12944661    -0.45362773  -115.55337522     0.00000088    -0.00000301  0.39D-08  0.14D-08  6  1    18.52     0.90
   8      1.12944840    -0.45362779  -115.55337528    -0.00000006     0.00000033  0.67D-09  0.20D-09  6  3    19.27     0.90

 Norm of t1 vector:      0.05019244      S-energy:    -0.00000035      T1 diagnostic:  0.00948548
                                                                       D1 diagnostic:  0.02004584

 Adding energy correction from Wij-K(Fij), methodcc=6  factor= 1.0

  CCSD correlation energy              -0.453627788215
  MP2-F12 correction (uncoupled)       -0.038510629395
  C*T doubles correction               -0.001165668505
  f12b correction                       0.007098551391


 Total CPU time for triples:     11.95 sec


 RESULTS
 =======

  Reference energy                   -115.098400312064
  F12 singles correction               -0.001347177938

 F12 singles corrections added to reference energy

  New reference energy               -115.099747490002

  F12a singlet correction              -0.035761425554
  F12a triplet correction              -0.003914872346
  F12a total correction                -0.039676297900

 F12a corrections for ansatz F12/3C(FIX) added to CCSD energy

  CCSD-F12a singlet pair energy        -0.351441781748
  CCSD-F12a triplet pair energy        -0.141861951231
  CCSD-F12a correlation energy         -0.493304086115

  Triples (T) contribution             -0.016057983786
  Total correlation energy             -0.509362069900

  CCSD-F12a total energy             -115.593051576117
  CCSD[T]-F12a energy                -115.609667449750
  CCSD-T-F12a energy                 -115.608863792452
 !CCSD(T)-F12a total energy          -115.609109559903

 F12b corrections for ansatz F12/3C(FIX) added to CCSD(T)-F12a energy

  CCSD-F12b singlet pair energy        -0.344804779385
  CCSD-F12b triplet pair energy        -0.141400402202
  CCSD-F12b correlation energy         -0.486205534723

  Triples (T) contribution             -0.016057983786
  Total correlation energy             -0.502263518509

  CCSD-F12b total energy             -115.585953024726
  CCSD[T]-F12b energy                -115.602568898359
  CCSD-T-F12b energy                 -115.601765241061
 !CCSD(T)-F12b total energy          -115.602011008511

 Timing summary (sec):

 STEP                 CPU(USER)    SYS     CPU(TOT)    WALL
 Transformation          1.24      0.97      2.21      4.77
 CCSD iterations         6.30      0.77      7.07      7.22
 Triples                11.95      0.50     12.45     12.48
 MP2-F12                11.73      0.58     12.31     12.49
 F12b energy             0.66      0.05      0.71      0.71

 Program statistics:

 Available memory in ccsd:               499999650
 Min. memory needed in ccsd:               1149135
 Max. memory used in ccsd:                 1443104
 Max. memory used in cckext:               1888566 ( 9 integral passes)



 **********************************************************************************************************************************
 DATASETS  * FILE   NREC   LENGTH (MB)   RECORD NAMES
              1      20      386.10       500      610      700      900      950      970     1000      129      960     1100   
                                          VAR    BASINP    GEOM    SYMINP    ZMAT    AOBASIS   BASIS     P2S    ABASIS      S 
                                         1400     1410     1200     1210     1080     1600     1650     1300     1700     1380   
                                           T        V       H0       H01     AOSYM     SMH    MOLCAS    ERIS     OPER     JKOP   

              2       7        3.55       700     1000      520     2100     7360     7350     7000   
                                         GEOM     BASIS   MCVARS     RHF    F12ABS    EF12   

 PROGRAMS   *        TOTAL   CCSD(T)   MP2-F12    HF-SCF       INT
 CPU TIMES  *        53.74     31.91     12.27      2.69      6.76
 REAL TIME  *       102.28 SEC
 DISK USED  *         1.13 GB
 **********************************************************************************************************************************
 SETTING XXX            =    "MMM"
 SETTING POINT          =        44.00000000                                  

 *** ### CH3OH


 XXX       RCO          ROH          RCH1         RCH2         RCH3           ACOH           AOCH1          AOCH2          AOCH3         AHH1           AHH2           AHH3            ENERGY       POINT
 "MMM"   1.42077677   0.96013932   1.09171752   1.10440070   1.09171752   108.12930637   111.65221523   107.18733878   111.65221523   61.43364279   180.00000000   298.56635721   -115.60910956   44.0000
                                                  

 CCSD(T)-F12/cc-pVTZ-F12 energy=   -115.602011008511

     CCSD(T)-F12         MP2-F12          HF-SCF
   -115.60201101   -115.58349889   -115.09840031
 **********************************************************************************************************************************
 Molpro calculation terminated
