
 Primary working directories    : /tmpdir/job/2955642.undefined/molpro.0VDKmsqpCe
 Secondary working directories  : /tmpdir/job/2955642.undefined/molpro.0VDKmsqpCe
 Wavefunction directory         : /home/zcaposm/wfu/
 Main file repository           : /tmpdir/job/2955642.undefined/molpro.0VDKmsqpCe/

 id        : uclcc

 Nodes                         nprocs
 node-d00a-109.myriad.ucl.ac.uk    1

 Using customized tuning parameters: mindgm=1; mindgv=20; mindgc=4; mindgr=1; noblas=0; minvec=7
 default implementation of scratch files=df  


 Variables initialized (945), CPU time= 0.01 sec
 ***,Methanol Ground State Energy with CCSD(T)-F12 and cc-pVTZ-F12
 memory,500,m;
 
 geometry={angstrom
 c
 o , 1, rco
 h , 2, roh, 1, acoh
 h1, 1, rch1, 2, aoch1  3  ahh1
 h2, 1, rch2, 2, aoch2, 3, ahh2
 h3, 1, rch3, 2, aoch3, 3, ahh3
 }
 
                                                ! Specify the initial values of the internal coordinates (in Angstroms and degrees)
 
 rco= 1.42077677
 roh= 0.96013932
 rch1= 1.091717515605
 rch2= 1.08440070258
 rch3= 1.091717515605
 acoh= 108.12930637
 aoch1= 111.6522152299
 aoch2= 107.43733878260001
 aoch3= 111.6522152299
 ahh1=61.43364279
 ahh2=180.0
 ahh3=298.56635721
 
                                                                                 ! Use the cc-pVTZ-F12 basis set
 basis=cc-pVTZ-F12
 
 hf
 
                                                                                 ! Use explicitly correlated F12 methods
                                                                            ! First, MP2-F12 (useful for initial electronic energy)
 {mp2-f12}
 
                                                                        ! If desired, perform CCSD(T)-F12 for more accurate results
 {ccsd(t)-f12}
 
                                                                                 ! Output the energy
 xxx = "mmm"
 point = 74
 text ### CH3OH
 table,xxx,rco,roh,rch1,rch2,rch3,acoh,aoch1,aoch2,aoch3,ahh1,ahh2,ahh3,energy,point
 DIGITS, 0, 8, 8, 8, 8, 8, 8, 8, 8, 8,  8,  8,  8, 8, 4
 save,CH3OH_MEP_MP2_74.dat,new
 
 Commands  initialized (802), CPU time= 0.01 sec, 659 directives.
 Default parameters read. Elapsed time= 0.12 sec

 Checking input...
 Passed
1


                                         ***  PROGRAM SYSTEM MOLPRO  ***
                                       Copyright, TTI GmbH Stuttgart, 2015
                                    Version 2020.1 linked Oct  6 2020 12:04:11


 **********************************************************************************************************************************
 LABEL *   Methanol Ground State Energy with CCSD(T)-F12 and cc-pVTZ-F12                 
  64 bit serial version                                                                  DATE: 08-Oct-24          TIME: 17:30:38  
 **********************************************************************************************************************************

 SHA1:             8c27446f6450a7499e38f603e13c65f775101d37
 **********************************************************************************************************************************

 Memory per process:       500 MW
 Total memory per node:    500 MW

 GA preallocation disabled
 GA check disabled

 Variable memory set to 500.0 MW

 SETTING RCO            =         1.42077677                                  
 SETTING ROH            =         0.96013932                                  
 SETTING RCH1           =         1.09171752                                  
 SETTING RCH2           =         1.08440070                                  
 SETTING RCH3           =         1.09171752                                  
 SETTING ACOH           =       108.12930637                                  
 SETTING AOCH1          =       111.65221523                                  
 SETTING AOCH2          =       107.43733878                                  
 SETTING AOCH3          =       111.65221523                                  
 SETTING AHH1           =        61.43364279                                  
 SETTING AHH2           =       180.00000000                                  
 SETTING AHH3           =       298.56635721                                  
 SETTING BASIS          =    CC-PVTZ-F12


 Recomputing integrals since basis changed


 Using spherical harmonics

 Library entry C      S cc-pVTZ-F12          selected for orbital group  1
 Library entry C      P cc-pVTZ-F12          selected for orbital group  1
 Library entry C      D cc-pVTZ-F12          selected for orbital group  1
 Library entry C      F cc-pVTZ-F12          selected for orbital group  1
 Library entry O      S cc-pVTZ-F12          selected for orbital group  2
 Library entry O      P cc-pVTZ-F12          selected for orbital group  2
 Library entry O      D cc-pVTZ-F12          selected for orbital group  2
 Library entry O      F cc-pVTZ-F12          selected for orbital group  2
 Library entry H      S cc-pVTZ-F12          selected for orbital group  3
 Library entry H      P cc-pVTZ-F12          selected for orbital group  3
 Library entry H      D cc-pVTZ-F12          selected for orbital group  3


 PROGRAM * SEWARD (Integral evaluation for generally contracted gaussian basis sets)     Author: Roland Lindh, 1990

 Geometry written to block  1 of record 700

 Orientation using atomic masses  
 Molecule type: Asymmetric top
 Symmetry elements: X
 Rotational constants:      23.9511122     24.7961186    128.8913042 GHz  (calculated with average atomic masses)

 Point group  Cs  



 ATOMIC COORDINATES

 NR  ATOM    CHARGE       X              Y              Z

   1  C       6.00    0.000000000    0.025306795   -1.376324394
   2  O       8.00    0.000000000   -0.122357178    1.304490871
   3  H       1.00    0.000000000    1.568309866    1.963045044
   4  H1      1.00    1.684053272    0.982677399   -2.085950691
   5  H3      1.00   -1.684053272    0.982677399   -2.085950691
   6  H2      1.00    0.000000000   -1.893009941   -2.096994145

 Bond lengths in Bohr (Angstrom)

 1-2  2.684878979  1-4  2.063047110  1-5  2.063047110  1-6  2.049220337  2-3  1.814400356
     ( 1.420776770)     ( 1.091717516)     ( 1.091717516)     ( 1.084400703)     ( 0.960139320)

 Bond angles

  1-2-3  108.12930637   2-1-4  111.65221523   2-1-5  111.65221523   2-1-6  107.43733878

  4-1-5  109.43105099   4-1-6  108.26699138   5-1-6  108.26699138

 NUCLEAR CHARGE:                   18
 NUMBER OF PRIMITIVE AOS:         228
 NUMBER OF SYMMETRY AOS:          206
 NUMBER OF CONTRACTIONS:          178   (  114A'  +   64A"  )
 NUMBER OF INNER CORE ORBITALS:     0   (    0A'  +    0A"  )
 NUMBER OF OUTER CORE ORBITALS:     2   (    2A'  +    0A"  )
 NUMBER OF VALENCE ORBITALS:       12   (    9A'  +    3A"  )


 NUCLEAR REPULSION ENERGY   40.34260084

 Eigenvalues of metric

         1 0.879E-04 0.184E-03 0.309E-03 0.460E-03 0.493E-03 0.560E-03 0.617E-03 0.621E-03
         2 0.323E-03 0.570E-03 0.686E-03 0.178E-02 0.339E-02 0.494E-02 0.641E-02 0.870E-02


 Contracted 2-electron integrals neglected if value below      1.0D-11
 AO integral compression algorithm  1   Integral accuracy      1.0D-11

     331.612 MB (compressed) written to integral file ( 53.5%)


 NUMBER OF SORTED TWO-ELECTRON INTEGRALS:   64554730.     BUFFER LENGTH:  32768
 NUMBER OF SEGMENTS:   5  SEGMENT LENGTH:   15997996      RECORD LENGTH: 524288

 Memory used in sort:      16.56 MW

 SORT1 READ    77497885. AND WROTE    63554796. INTEGRALS IN    184 RECORDS. CPU TIME:     1.30 SEC, REAL TIME:    17.59 SEC
 SORT2 READ    63554796. AND WROTE    64554730. INTEGRALS IN   1265 RECORDS. CPU TIME:     1.23 SEC, REAL TIME:    43.40 SEC

 FILE SIZES:   FILE 1:   362.5 MBYTE,  FILE 4:   771.8 MBYTE,   TOTAL:   1134.3 MBYTE

 OPERATOR DM      FOR CENTER  0  COORDINATES:    0.000000    0.000000    0.000000


 **********************************************************************************************************************************
 DATASETS  * FILE   NREC   LENGTH (MB)   RECORD NAMES
              1      19      311.88       500      610      700      900      950      970     1000      129      960     1100   
                                          VAR    BASINP    GEOM    SYMINP    ZMAT    AOBASIS   BASIS     P2S    ABASIS      S 
                                         1400     1410     1200     1210     1080     1600     1650     1300     1700   
                                           T        V       H0       H01     AOSYM     SMH    MOLCAS    ERIS     OPER   

 PROGRAMS   *        TOTAL       INT
 CPU TIMES  *         6.17      6.06
 REAL TIME  *        83.02 SEC
 DISK USED  *         1.13 GB
 **********************************************************************************************************************************


 PROGRAM * RHF-SCF (CLOSED SHELL)       Authors: W. Meyer, H.-J. Werner


 NUMBER OF ELECTRONS:       9+    9-
 CONVERGENCE THRESHOLDS:    1.00E-05 (Density)    1.00E-07 (Energy)
 MAX. NUMBER OF ITERATIONS:       60
 INTERPOLATION TYPE:            DIIS
 INTERPOLATION STEPS:              2 (START)      1 (STEP)
 LEVEL SHIFTS:                  0.00 (CLOSED)  0.00 (OPEN) 



 Orbital guess generated from atomic densities. Full valence occupancy:   11   3

 Molecular orbital dump at record        2100.2

 Initial occupancy:   7   2

 ITERATION    DDIFF          GRAD             ENERGY        2-EL.EN.            DIPOLE MOMENTS         DIIS   ORB.
    1      0.000D+00      0.000D+00      -115.06238939    164.476487    0.00000    0.90382   -0.47822    0    start
    2      0.000D+00      0.668D-02      -115.09073184    161.896392    0.00000    0.49663   -0.30401    1    diag
    3      0.653D-02      0.365D-02      -115.09820584    163.158672    0.00000    0.59978   -0.39708    2    diag
    4      0.222D-02      0.721D-03      -115.09873816    162.982051    0.00000    0.59466   -0.39249    3    diag
    5      0.593D-03      0.145D-03      -115.09877254    162.993512    0.00000    0.59068   -0.39729    4    diag
    6      0.165D-03      0.270D-04      -115.09877410    162.991296    0.00000    0.59082   -0.39807    5    diag
    7      0.475D-04      0.573D-05      -115.09877418    162.990910    0.00000    0.59064   -0.39834    6    diag
    8      0.119D-04      0.150D-05      -115.09877418    162.991262    0.00000    0.59063   -0.39837    7    diag
    9      0.236D-05      0.473D-06      -115.09877418    162.991097    0.00000    0.59061   -0.39837    0    orth

 Final occupancy:   7   2

 !RHF STATE  1.1 Energy              -115.098774179671
 Nuclear energy                        40.34260084
 One-electron energy                 -236.93692341
 Two-electron energy                   81.49554839
 Virial quotient                       -1.00102172
 !RHF STATE  1.1 Dipole moment          0.00000000     0.59061083    -0.39837374
 Dipole moment /Debye                   0.00000000     1.50108468    -1.01249872

 Orbital energies:

         1.1          2.1          3.1          4.1          5.1          6.1          7.1          8.1          9.1
    -20.556425   -11.269790    -1.356947    -0.926441    -0.690702    -0.594692    -0.504154     0.054650     0.064986

         1.2          2.2          3.2          4.2
     -0.621569    -0.452194     0.073798     0.181485


 HOMO      2.2    -0.452194 =     -12.3048eV
 LUMO      8.1     0.054650 =       1.4871eV
 LUMO-HOMO         0.506844 =      13.7919eV


 **********************************************************************************************************************************
 DATASETS  * FILE   NREC   LENGTH (MB)   RECORD NAMES
              1      19      311.88       500      610      700      900      950      970     1000      129      960     1100   
                                          VAR    BASINP    GEOM    SYMINP    ZMAT    AOBASIS   BASIS     P2S    ABASIS      S 
                                         1400     1410     1200     1210     1080     1600     1650     1300     1700   
                                           T        V       H0       H01     AOSYM     SMH    MOLCAS    ERIS     OPER   

              2       4        3.18       700     1000      520     2100   
                                         GEOM     BASIS   MCVARS     RHF  

 PROGRAMS   *        TOTAL    HF-SCF       INT
 CPU TIMES  *         9.34      3.17      6.06
 REAL TIME  *        94.94 SEC
 DISK USED  *         1.13 GB
 **********************************************************************************************************************************


 PROGRAM * MP2 (Closed-shell)     Authors: C. Hampel, H.-J. Werner, 1991, M. Deegan, P.J. Knowles, 1992

                                   MP2-F12 implementation by H.-J. Werner, 2007

                   Density fitting integral evaluation by F.R. Manby, 2003,2007, G. Knizia, 2010


 Basis set AUG-CC-PVTZ/JKFIT generated.  Number of basis functions:   392 
 Basis set CC-PVTZ-F12/OPTRI generated.  Number of basis functions:   314 
 Basis set AUG-CC-PVTZ/MP2FIT generated. Number of basis functions:   396 

 Convergence thresholds:  THRVAR = 1.00D-08  THRDEN = 1.00D-06

 Number of core orbitals:           2 (   2   0 )
 Number of closed-shell orbitals:   7 (   5   2 )
 Number of external orbitals:     169 ( 107  62 )

 Molecular orbitals read from record     2100.2  Type=RHF/CANONICAL (state 1.1)

 MP2-F12 correlation treatment (H.-J. Werner, 2006)
 ==================================================

 Using MP2-F12 with ansatz 3C(FIX)

 Using projected zeroth-order Hamiltonian (+Z)

 FOCKRIB=T FOCKRIC=T FOCKRIP=T CABSP=T CABSA=T CABSK=T CABSF=T GBC=F EBC=F DMAT=T NOFIK=T NOPAO=1 SOLVE=-1  USEPAO=0
 EXCH_A= T EXCH_B= F EXCH_C= F EXCH_P= F

 Geminal basis:    OPTFULL  GEM_TYPE=SLATER  BETA=1.0  NGEM=6

 Optimizing Gaussian exponents for each gem_beta

 Geminal optimization for beta= 1.0000
 Weight function:   m=0, omega= 1.4646

 Augmented Hessian optimization of geminal fit. Trust ratio= 0.40000
 Convergence reached after   2 iterations. Final gradient= 8.66D-16, Step= 4.23D-06, Delta= 1.28D-09

 Alpha:                 0.19532     0.81920     2.85917     9.50073    35.69989   197.79328
 Coeff:                 0.27070     0.30552     0.18297     0.10986     0.06810     0.04224


 Symmetry turned off. Reference energy:       -115.098774179671

 All pairs explicitly correlated. Number of r12-pairs:           28

 Excluding core orbitals from MO domains

 AO(A)-basis ORBITAL           loaded. Number of functions:     178
 RI(R)-basis CC-PVTZ-F12/OPTRI loaded. Number of functions:     314
 DF-basis AUG-CC-PVTZ/JKFIT    loaded. Number of functions:     392

 Screening thresholds:   THRAO=  1.00D-10  THRMO=  1.00D-09  THRPROD=  1.00D-09
                         THRSW=  1.00D-05  THROV=  1.00D-12  THRAOF12= 1.00D-08

 CPU time for Fock operators                      5.45 sec

 Construction of ABS:
 Smallest eigenvalue of S          4.35E-04  (threshold= 1.00E-08)
 Ratio eigmin/eigmax               5.56E-05  (threshold= 1.00E-09)
 Smallest eigenvalue of S kept     4.35E-04  (threshold= 4.35E-04, 0 functions deleted, 314 kept)

 Construction of CABS:
 Smallest eigenvalue of S          7.26E-07  (threshold= 1.00E-08)
 Ratio eigmin/eigmax               7.26E-07  (threshold= 1.00E-09)
 Smallest eigenvalue of S kept     7.26E-07  (threshold= 7.26E-07, 0 functions deleted, 314 kept)

 CPU time for CABS singles                        0.04 sec

 CABS-singles contribution of  -0.00135385 patched into reference energy.
 New reference energy        -115.10012803

 AO(A)-basis ORBITAL           loaded. Number of functions:     178
 RI(R)-basis CC-PVTZ-F12/OPTRI loaded. Number of functions:     314
 DF-basis AUG-CC-PVTZ/MP2FIT   loaded. Number of functions:     396

 Screening thresholds:   THRAO=  1.00D-10  THRMO=  1.00D-09  THRPROD=  1.00D-09
                         THRSW=  1.00D-05  THROV=  1.00D-12  THRAOF12= 1.00D-08

 CPU time for 3-index integral evaluation         3.32 sec
 CPU time for first  half transformation          0.27 sec ( 9144.6 MFLOP/sec)
 CPU time for second half transformation          0.01 sec ( 6217.0 MFLOP/sec)
 CPU time for sorting                             0.02 sec
 CPU time for fitting                             0.01 sec (******* MFLOP/sec)
 CPU time for tilde quantities                    0.01 sec (******* MFLOP/sec)
 CPU time for assembly                            0.24 sec (51473.3 MFLOP/sec)
 CPU time for tranop_f12                          0.27 sec (58741.6 MFLOP/sec)
 CPU time for f12 integrals (total)               7.12 sec, Elapsed time:      7.50 sec
 CPU time for f12 matrices (total)                0.11 sec, Elapsed time:      0.15 sec

 Diagonal F12 approximation with fixed coefficients:  TSING= 0.500,  TTRIP= 0.250 (scaled by -1/beta)

 DF-MP2-F12 energy corrections:
 ==============================
 Approx.                                    Singlet             Triplet             Total
 DF-MP2-F12/3*C(DX,FIX)                -0.038286817961     -0.004212366523     -0.042499184484
 DF-MP2-F12/3*C(FIX)                   -0.036088202002     -0.003930626414     -0.040018828416
 DF-MP2-F12/3C(FIX)                    -0.036030875056     -0.004065578943     -0.040096454000

 DF-MP2-F12 correlation energies:
 ================================
 Approx.                                    Singlet             Triplet             Ecorr            Total Energy
 DF-MP2                                -0.291091068423     -0.152361529268     -0.443452597691   -115.543580628633
 DF-MP2-F12/3*C(DX,FIX)                -0.329377886384     -0.156573895791     -0.485951782175   -115.586079813117
 DF-MP2-F12/3*C(FIX)                   -0.327179270425     -0.156292155682     -0.483471426107   -115.583599457048
 DF-MP2-F12/3C(FIX)                    -0.327121943480     -0.156427108211     -0.483549051691   -115.583677082632

 SCS-DF-MP2 energies (F_SING= 1.20000  F_TRIP= 0.62222  F_PARALLEL= 0.33333):
 ============================================================================
 SCS-DF-MP2                            -0.444112011430   -115.544240042372
 SCS-DF-MP2-F12/3*C(DX,FIX)            -0.492677221042   -115.592805251984
 SCS-DF-MP2-F12/3*C(FIX)               -0.489863576934   -115.589991607876
 SCS-DF-MP2-F12/3C(FIX)                -0.489878755062   -115.590006786004

 Symmetry restored.
 Symmetry transformation completed.

 Number of N-1 electron functions:               7
 Number of N-2 electron functions:              28
 Number of singly external CSFs:               659
 Number of doubly external CSFs:            355020
 Total number of CSFs:                      355680

 Length of J-op  integral file:             103.49 MB
 Length of K-op  integral file:             127.95 MB

 Integral transformation finished. Total CPU:   0.48 sec, npass=  1  Memory used:   0.67 MW

 ITER.      SQ.NORM     CORR.ENERGY   TOTAL ENERGY   ENERGY CHANGE     VAR   MIC
   1      1.00000000    -0.44351900  -115.54364703    -0.44351900  0.00D+00   0
   2      1.11473389    -0.44351900  -115.54364703     0.00000000  0.90D-17   0

 Solving MP2-F12 equations

   1      1.11469756    -0.48285745  -115.58298548    -0.03933845 -0.37D-04   0
   2      1.11469756    -0.48361405  -115.58374208    -0.00075661 -0.85D-19   0
   3      1.11469756    -0.48361405  -115.58374208     0.00000000  0.13D-18   0

 CPU TIME FOR ITERATIVE MP2:    0.04 SEC


 MP2-F12 energy corrections:
 ===========================
 Approx.                                    Singlet             Triplet             Total
 MP2-F12/3*C(DX,FIX)                   -0.038286817961     -0.004212366523     -0.042499184484
 MP2-F12/3*C(FIX)                      -0.036088202002     -0.003930626414     -0.040018828416
 MP2-F12/3C(FIX)                       -0.036028176109     -0.004066876089     -0.040095052198

 MP2-F12 correlation energies:
 =============================
 Approx.                                    Singlet             Triplet             Ecorr            Total Energy
 MP2                                   -0.291274379999     -0.152244620404     -0.443519000403   -115.543647031345
 MP2-F12/3*C(DX,FIX)                   -0.329561197960     -0.156456986927     -0.486018184888   -115.586146215829
 MP2-F12/3*C(FIX)                      -0.327362582001     -0.156175246818     -0.483537828819   -115.583665859761
 MP2-F12/3C(FIX)                       -0.327302556109     -0.156311496493     -0.483614052602   -115.583742083544

 SCS-MP2 energies (F_SING= 1.20000  F_TRIP= 0.62222  F_PARALLEL= 0.33333):
 =========================================================================
 SCS-MP2                               -0.444259242028   -115.544387272970
 SCS-MP2-F12/3*C(DX,FIX)               -0.492824451641   -115.592952482582
 SCS-MP2-F12/3*C(FIX)                  -0.490010807532   -115.590138838474
 SCS-MP2-F12/3C(FIX)                   -0.490023554037   -115.590151584979


  Reference energy                   -115.098774179671
  F12 singles correction               -0.001353851270

 F12 singles corrections added to reference energy

  New reference energy               -115.100128030942

  F12/3C(F) singlet correction         -0.036028176109
  F12/3C(F) triplet correction         -0.004066876089
  F12/3C(F) total correction           -0.040095052198
  MP2-F12/3C(F) singlet pair energy    -0.327302556109
  MP2-F12/3C(F) triplet pair energy    -0.156311496493
  MP2-F12/3C(F) correlation energy     -0.483614052602

 !MP2-F12/3C(F) total energy         -115.583742083544


 **********************************************************************************************************************************
 DATASETS  * FILE   NREC   LENGTH (MB)   RECORD NAMES
              1      20      317.63       500      610      700      900      950      970     1000      129      960     1100   
                                          VAR    BASINP    GEOM    SYMINP    ZMAT    AOBASIS   BASIS     P2S    ABASIS      S 
                                         1400     1410     1200     1210     1080     1600     1650     1300     1700     1380   
                                           T        V       H0       H01     AOSYM     SMH    MOLCAS    ERIS     OPER     JKOP   

              2       7        3.55       700     1000      520     2100     7360     7350     7000   
                                         GEOM     BASIS   MCVARS     RHF    F12ABS    EF12   

 PROGRAMS   *        TOTAL   MP2-F12    HF-SCF       INT
 CPU TIMES  *        22.79     13.44      3.17      6.06
 REAL TIME  *       110.36 SEC
 DISK USED  *         1.13 GB
 **********************************************************************************************************************************


 PROGRAM * CCSD (Closed-shell coupled cluster)     Authors: C. Hampel, H.-J. Werner, 1991, M. Deegan, P.J. Knowles, 1992

                                  CCSD-F12 implementation by  H.-J. Werner, 2007

                   Density fitting integral evaluation by F.R. Manby, 2003,2007, G. Knizia, 2010



 Convergence thresholds:  THRVAR = 1.00D-08  THRDEN = 1.00D-06

 CCSD(T)     terms to be evaluated (factor= 1.000)


 Number of core orbitals:           2 (   2   0 )
 Number of closed-shell orbitals:   7 (   5   2 )
 Number of external orbitals:     169 ( 107  62 )

 Molecular orbitals read from record     2100.2  Type=RHF/CANONICAL (state 1.1)

 MP2-F12 correlation treatment (H.-J. Werner, 2006)
 ==================================================

 Using MP2-F12 with ansatz 3C(FIX)

 Using projected zeroth-order Hamiltonian (+Z)

 FOCKRIB=T FOCKRIC=T FOCKRIP=T CABSP=T CABSA=T CABSK=T CABSF=T GBC=F EBC=F DMAT=T NOFIK=T NOPAO=1 SOLVE=-1  USEPAO=0
 EXCH_A= T EXCH_B= F EXCH_C= F EXCH_P= F

 Geminal basis:    OPTFULL  GEM_TYPE=SLATER  BETA=1.0  NGEM=6

 Optimizing Gaussian exponents for each gem_beta

 Geminal optimization for beta= 1.0000
 Weight function:   m=0, omega= 1.4646

 Augmented Hessian optimization of geminal fit. Trust ratio= 0.40000
 Convergence reached after   2 iterations. Final gradient= 8.66D-16, Step= 4.23D-06, Delta= 1.28D-09

 Alpha:                 0.19532     0.81920     2.85917     9.50073    35.69989   197.79328
 Coeff:                 0.27070     0.30552     0.18297     0.10986     0.06810     0.04224


 Symmetry turned off. Reference energy:       -115.098774179671

 All pairs explicitly correlated. Number of r12-pairs:           28

 Excluding core orbitals from MO domains

 AO(A)-basis ORBITAL           loaded. Number of functions:     178
 RI(R)-basis CC-PVTZ-F12/OPTRI loaded. Number of functions:     314
 DF-basis AUG-CC-PVTZ/JKFIT    loaded. Number of functions:     392

 Screening thresholds:   THRAO=  1.00D-10  THRMO=  1.00D-09  THRPROD=  1.00D-09
                         THRSW=  1.00D-05  THROV=  1.00D-12  THRAOF12= 1.00D-08

 CPU time for Fock operators                      5.44 sec

 Construction of ABS:
 Smallest eigenvalue of S          4.35E-04  (threshold= 1.00E-08)
 Ratio eigmin/eigmax               5.56E-05  (threshold= 1.00E-09)
 Smallest eigenvalue of S kept     4.35E-04  (threshold= 4.35E-04, 0 functions deleted, 314 kept)

 Construction of CABS:
 Smallest eigenvalue of S          7.26E-07  (threshold= 1.00E-08)
 Ratio eigmin/eigmax               7.26E-07  (threshold= 1.00E-09)
 Smallest eigenvalue of S kept     7.26E-07  (threshold= 7.26E-07, 0 functions deleted, 314 kept)

 CPU time for CABS singles                        0.04 sec

 CABS-singles contribution of  -0.00135385 patched into reference energy.
 New reference energy        -115.10012803

 AO(A)-basis ORBITAL           loaded. Number of functions:     178
 RI(R)-basis CC-PVTZ-F12/OPTRI loaded. Number of functions:     314
 DF-basis AUG-CC-PVTZ/MP2FIT   loaded. Number of functions:     396

 Screening thresholds:   THRAO=  1.00D-10  THRMO=  1.00D-09  THRPROD=  1.00D-09
                         THRSW=  1.00D-05  THROV=  1.00D-12  THRAOF12= 1.00D-08

 CPU time for 3-index integral evaluation         3.39 sec
 CPU time for first  half transformation          0.26 sec ( 9496.4 MFLOP/sec)
 CPU time for second half transformation          0.02 sec ( 3108.5 MFLOP/sec)
 CPU time for sorting                             0.01 sec
 CPU time for fitting                             0.01 sec (******* MFLOP/sec)
 CPU time for tilde quantities                    0.03 sec (50348.4 MFLOP/sec)
 CPU time for assembly                            0.21 sec (58826.6 MFLOP/sec)
 CPU time for tranop_f12                          0.27 sec (58741.6 MFLOP/sec)
 CPU time for f12 integrals (total)               7.13 sec, Elapsed time:      7.87 sec
 CPU time for f12 matrices (total)                0.11 sec, Elapsed time:      0.14 sec

 Diagonal F12 approximation with fixed coefficients:  TSING= 0.500,  TTRIP= 0.250 (scaled by -1/beta)

 DF-MP2-F12 energy corrections:
 ==============================
 Approx.                                    Singlet             Triplet             Total
 DF-MP2-F12/3*C(DX,FIX)                -0.038286817961     -0.004212366523     -0.042499184484
 DF-MP2-F12/3*C(FIX)                   -0.036088202002     -0.003930626414     -0.040018828416
 DF-MP2-F12/3C(FIX)                    -0.036030875056     -0.004065578943     -0.040096454000

 DF-MP2-F12 correlation energies:
 ================================
 Approx.                                    Singlet             Triplet             Ecorr            Total Energy
 DF-MP2                                -0.291091068423     -0.152361529268     -0.443452597691   -115.543580628633
 DF-MP2-F12/3*C(DX,FIX)                -0.329377886384     -0.156573895791     -0.485951782175   -115.586079813117
 DF-MP2-F12/3*C(FIX)                   -0.327179270425     -0.156292155682     -0.483471426107   -115.583599457048
 DF-MP2-F12/3C(FIX)                    -0.327121943480     -0.156427108211     -0.483549051691   -115.583677082632

 SCS-DF-MP2 energies (F_SING= 1.20000  F_TRIP= 0.62222  F_PARALLEL= 0.33333):
 ============================================================================
 SCS-DF-MP2                            -0.444112011430   -115.544240042372
 SCS-DF-MP2-F12/3*C(DX,FIX)            -0.492677221042   -115.592805251984
 SCS-DF-MP2-F12/3*C(FIX)               -0.489863576934   -115.589991607876
 SCS-DF-MP2-F12/3C(FIX)                -0.489878755062   -115.590006786004

 Symmetry restored.
 Symmetry transformation completed.

 Number of N-1 electron functions:               7
 Number of N-2 electron functions:              28
 Number of singly external CSFs:               659
 Number of doubly external CSFs:            355020
 Total number of CSFs:                      355680

 Length of J-op  integral file:             103.62 MB
 Length of K-op  integral file:             127.95 MB
 Length of 3-ext integral record:             0.00 MB

 Memory could be reduced to 24.20 Mwords without degradation in triples

 Integral transformation finished. Total CPU:   1.16 sec, npass=  1  Memory used:   7.45 MW

 Reference energy:                   -115.10012803

 Adding F12 terms to K(Cij), methodcc=6,  factor= 1.0

 ITER.      SQ.NORM     CORR.ENERGY   TOTAL ENERGY   ENERGY CHANGE        DEN1      VAR(S)    VAR(P)  DIIS     TIME  TIME/IT
   1      1.11762454    -0.45285502  -115.55298305    -0.00933602     0.00166410  0.15D-02  0.19D-02  1  1    14.79     1.13
   2      1.12503351    -0.45321712  -115.55334515    -0.00036210    -0.00904550  0.24D-04  0.23D-03  2  2    15.60     1.03
   3      1.12776307    -0.45339456  -115.55352259    -0.00017744    -0.00186519  0.15D-04  0.13D-04  3  3    16.46     1.01
   4      1.12871029    -0.45341246  -115.55354049    -0.00001790    -0.00060012  0.86D-06  0.12D-05  4  4    17.32     1.00
   5      1.12886586    -0.45341402  -115.55354205    -0.00000155    -0.00003791  0.23D-06  0.10D-06  5  5    18.17     0.99
   6      1.12890845    -0.45341166  -115.55353969     0.00000235    -0.00000423  0.36D-07  0.96D-08  6  6    19.00     0.98
   7      1.12891958    -0.45341079  -115.55353882     0.00000087    -0.00000299  0.39D-08  0.14D-08  6  1    19.85     0.98
   8      1.12892138    -0.45341085  -115.55353888    -0.00000006     0.00000034  0.67D-09  0.20D-09  6  3    20.71     0.97

 Norm of t1 vector:      0.05001304      S-energy:    -0.00000037      T1 diagnostic:  0.00945158
                                                                       D1 diagnostic:  0.02003605

 Adding energy correction from Wij-K(Fij), methodcc=6  factor= 1.0

  CCSD correlation energy              -0.453410851510
  MP2-F12 correction (uncoupled)       -0.038544958086
  C*T doubles correction               -0.001164783302
  f12b correction                       0.007098605982


 Total CPU time for triples:     11.36 sec


 RESULTS
 =======

  Reference energy                   -115.098774179671
  F12 singles correction               -0.001353851270

 F12 singles corrections added to reference energy

  New reference energy               -115.100128030942

  F12a singlet correction              -0.035791432452
  F12a triplet correction              -0.003918308936
  F12a total correction                -0.039709741388

 F12a corrections for ansatz F12/3C(FIX) added to CCSD energy

  CCSD-F12a singlet pair energy        -0.351205027217
  CCSD-F12a triplet pair energy        -0.141915199641
  CCSD-F12a correlation energy         -0.493120592898

  Triples (T) contribution             -0.016014003386
  Total correlation energy             -0.509134596285

  CCSD-F12a total energy             -115.593248623840
  CCSD[T]-F12a energy                -115.609815690027
  CCSD-T-F12a energy                 -115.609018932840
 !CCSD(T)-F12a total energy          -115.609262627226

 F12b corrections for ansatz F12/3C(FIX) added to CCSD(T)-F12a energy

  CCSD-F12b singlet pair energy        -0.344568474001
  CCSD-F12b triplet pair energy        -0.141453146874
  CCSD-F12b correlation energy         -0.486021986916

  Triples (T) contribution             -0.016014003386
  Total correlation energy             -0.502035990302

  CCSD-F12b total energy             -115.586150017858
  CCSD[T]-F12b energy                -115.602717084045
  CCSD-T-F12b energy                 -115.601920326858
 !CCSD(T)-F12b total energy          -115.602164021244

 Timing summary (sec):

 STEP                 CPU(USER)    SYS     CPU(TOT)    WALL
 Transformation          1.18      0.32      1.50      1.73
 CCSD iterations         6.75      0.77      7.52      7.84
 Triples                11.36      0.45     11.81     11.84
 MP2-F12                12.78      0.82     13.60     13.89
 F12b energy             0.63      0.07      0.70      0.70

 Program statistics:

 Available memory in ccsd:               499999650
 Min. memory needed in ccsd:               1149135
 Max. memory used in ccsd:                 1443104
 Max. memory used in cckext:               1888566 ( 9 integral passes)



 **********************************************************************************************************************************
 DATASETS  * FILE   NREC   LENGTH (MB)   RECORD NAMES
              1      20      386.19       500      610      700      900      950      970     1000      129      960     1100   
                                          VAR    BASINP    GEOM    SYMINP    ZMAT    AOBASIS   BASIS     P2S    ABASIS      S 
                                         1400     1410     1200     1210     1080     1600     1650     1300     1700     1380   
                                           T        V       H0       H01     AOSYM     SMH    MOLCAS    ERIS     OPER     JKOP   

              2       7        3.55       700     1000      520     2100     7360     7350     7000   
                                         GEOM     BASIS   MCVARS     RHF    F12ABS    EF12   

 PROGRAMS   *        TOTAL   CCSD(T)   MP2-F12    HF-SCF       INT
 CPU TIMES  *        55.52     32.73     13.44      3.17      6.06
 REAL TIME  *       146.42 SEC
 DISK USED  *         1.13 GB
 **********************************************************************************************************************************
 SETTING XXX            =    "MMM"
 SETTING POINT          =        74.00000000                                  

 *** ### CH3OH


 XXX       RCO          ROH          RCH1         RCH2         RCH3           ACOH           AOCH1          AOCH2          AOCH3         AHH1           AHH2           AHH3            ENERGY       POINT
 "MMM"   1.42077677   0.96013932   1.09171752   1.08440070   1.09171752   108.12930637   111.65221523   107.43733878   111.65221523   61.43364279   180.00000000   298.56635721   -115.60926263   74.0000
                                                  

 CCSD(T)-F12/cc-pVTZ-F12 energy=   -115.602164021244

     CCSD(T)-F12         MP2-F12          HF-SCF
   -115.60216402   -115.58374208   -115.09877418
 **********************************************************************************************************************************
 Molpro calculation terminated
