
 Primary working directories    : /tmpdir/job/2955614.undefined/molpro.0GsQh76rSY
 Secondary working directories  : /tmpdir/job/2955614.undefined/molpro.0GsQh76rSY
 Wavefunction directory         : /home/zcaposm/wfu/
 Main file repository           : /tmpdir/job/2955614.undefined/molpro.0GsQh76rSY/

 id        : uclcc

 Nodes                         nprocs
 node-d00a-043.myriad.ucl.ac.uk    1

 Using customized tuning parameters: mindgm=1; mindgv=20; mindgc=4; mindgr=1; noblas=0; minvec=7
 default implementation of scratch files=df  


 Variables initialized (945), CPU time= 0.00 sec
 ***,Methanol Ground State Energy with CCSD(T)-F12 and cc-pVTZ-F12
 memory,500,m;
 
 geometry={angstrom
 c
 o , 1, rco
 h , 2, roh, 1, acoh
 h1, 1, rch1, 2, aoch1  3  ahh1
 h2, 1, rch2, 2, aoch2, 3, ahh2
 h3, 1, rch3, 2, aoch3, 3, ahh3
 }
 
                                                ! Specify the initial values of the internal coordinates (in Angstroms and degrees)
 
 rco= 1.42077677
 roh= 0.96013932
 rch1= 1.091717515605
 rch2= 1.11440070258
 rch3= 1.091717515605
 acoh= 108.12930637
 aoch1= 111.6522152299
 aoch2= 107.18733878260001
 aoch3= 111.6522152299
 ahh1=61.43364279
 ahh2=180.0
 ahh3=298.56635721
 
                                                                                 ! Use the cc-pVTZ-F12 basis set
 basis=cc-pVTZ-F12
 
 hf
 
                                                                                 ! Use explicitly correlated F12 methods
                                                                            ! First, MP2-F12 (useful for initial electronic energy)
 {mp2-f12}
 
                                                                        ! If desired, perform CCSD(T)-F12 for more accurate results
 {ccsd(t)-f12}
 
                                                                                 ! Output the energy
 xxx = "mmm"
 point = 48
 text ### CH3OH
 table,xxx,rco,roh,rch1,rch2,rch3,acoh,aoch1,aoch2,aoch3,ahh1,ahh2,ahh3,energy,point
 DIGITS, 0, 8, 8, 8, 8, 8, 8, 8, 8, 8,  8,  8,  8, 8, 4
 save,CH3OH_MEP_MP2_48.dat,new
 
 Commands  initialized (802), CPU time= 0.01 sec, 659 directives.
 Default parameters read. Elapsed time= 0.11 sec

 Checking input...
 Passed
1


                                         ***  PROGRAM SYSTEM MOLPRO  ***
                                       Copyright, TTI GmbH Stuttgart, 2015
                                    Version 2020.1 linked Oct  6 2020 12:04:11


 **********************************************************************************************************************************
 LABEL *   Methanol Ground State Energy with CCSD(T)-F12 and cc-pVTZ-F12                 
  64 bit serial version                                                                  DATE: 08-Oct-24          TIME: 17:15:52  
 **********************************************************************************************************************************

 SHA1:             8c27446f6450a7499e38f603e13c65f775101d37
 **********************************************************************************************************************************

 Memory per process:       500 MW
 Total memory per node:    500 MW

 GA preallocation disabled
 GA check disabled

 Variable memory set to 500.0 MW

 SETTING RCO            =         1.42077677                                  
 SETTING ROH            =         0.96013932                                  
 SETTING RCH1           =         1.09171752                                  
 SETTING RCH2           =         1.11440070                                  
 SETTING RCH3           =         1.09171752                                  
 SETTING ACOH           =       108.12930637                                  
 SETTING AOCH1          =       111.65221523                                  
 SETTING AOCH2          =       107.18733878                                  
 SETTING AOCH3          =       111.65221523                                  
 SETTING AHH1           =        61.43364279                                  
 SETTING AHH2           =       180.00000000                                  
 SETTING AHH3           =       298.56635721                                  
 SETTING BASIS          =    CC-PVTZ-F12


 Recomputing integrals since basis changed


 Using spherical harmonics

 Library entry C      S cc-pVTZ-F12          selected for orbital group  1
 Library entry C      P cc-pVTZ-F12          selected for orbital group  1
 Library entry C      D cc-pVTZ-F12          selected for orbital group  1
 Library entry C      F cc-pVTZ-F12          selected for orbital group  1
 Library entry O      S cc-pVTZ-F12          selected for orbital group  2
 Library entry O      P cc-pVTZ-F12          selected for orbital group  2
 Library entry O      D cc-pVTZ-F12          selected for orbital group  2
 Library entry O      F cc-pVTZ-F12          selected for orbital group  2
 Library entry H      S cc-pVTZ-F12          selected for orbital group  3
 Library entry H      P cc-pVTZ-F12          selected for orbital group  3
 Library entry H      D cc-pVTZ-F12          selected for orbital group  3


 PROGRAM * SEWARD (Integral evaluation for generally contracted gaussian basis sets)     Author: Roland Lindh, 1990

 Geometry written to block  1 of record 700

 Orientation using atomic masses  
 Molecule type: Asymmetric top
 Symmetry elements: X
 Rotational constants:      23.8668943     24.7796559    126.9195067 GHz  (calculated with average atomic masses)

 Point group  Cs  



 ATOMIC COORDINATES

 NR  ATOM    CHARGE       X              Y              Z

   1  C       6.00    0.000000000    0.030392002   -1.375898812
   2  O       8.00    0.000000000   -0.123729822    1.304552941
   3  H       1.00    0.000000000    1.565345811    1.967178143
   4  H1      1.00    1.684053272    0.989469369   -2.083216674
   5  H3      1.00   -1.684053272    0.989469369   -2.083216674
   6  H2      1.00    0.000000000   -1.942438628   -2.112651936

 Bond lengths in Bohr (Angstrom)

 1-2  2.684878979  1-4  2.063047110  1-5  2.063047110  1-6  2.105912121  2-3  1.814400356
     ( 1.420776770)     ( 1.091717516)     ( 1.091717516)     ( 1.114400703)     ( 0.960139320)

 Bond angles

  1-2-3  108.12930637   2-1-4  111.65221523   2-1-5  111.65221523   2-1-6  107.18733878

  4-1-5  109.43105099   4-1-6  108.39459424   5-1-6  108.39459424

 NUCLEAR CHARGE:                   18
 NUMBER OF PRIMITIVE AOS:         228
 NUMBER OF SYMMETRY AOS:          206
 NUMBER OF CONTRACTIONS:          178   (  114A'  +   64A"  )
 NUMBER OF INNER CORE ORBITALS:     0   (    0A'  +    0A"  )
 NUMBER OF OUTER CORE ORBITALS:     2   (    2A'  +    0A"  )
 NUMBER OF VALENCE ORBITALS:       12   (    9A'  +    3A"  )


 NUCLEAR REPULSION ENERGY   40.23399193

 Eigenvalues of metric

         1 0.904E-04 0.184E-03 0.322E-03 0.461E-03 0.493E-03 0.567E-03 0.617E-03 0.624E-03
         2 0.324E-03 0.570E-03 0.686E-03 0.179E-02 0.341E-02 0.494E-02 0.668E-02 0.873E-02


 Contracted 2-electron integrals neglected if value below      1.0D-11
 AO integral compression algorithm  1   Integral accuracy      1.0D-11

     331.612 MB (compressed) written to integral file ( 53.5%)


 NUMBER OF SORTED TWO-ELECTRON INTEGRALS:   64554730.     BUFFER LENGTH:  32768
 NUMBER OF SEGMENTS:   5  SEGMENT LENGTH:   15997996      RECORD LENGTH: 524288

 Memory used in sort:      16.56 MW

 SORT1 READ    77497885. AND WROTE    63549228. INTEGRALS IN    184 RECORDS. CPU TIME:     1.48 SEC, REAL TIME:    31.86 SEC
 SORT2 READ    63549228. AND WROTE    64554730. INTEGRALS IN   1265 RECORDS. CPU TIME:     1.28 SEC, REAL TIME:   108.51 SEC

 FILE SIZES:   FILE 1:   362.5 MBYTE,  FILE 4:   771.8 MBYTE,   TOTAL:   1134.3 MBYTE

 OPERATOR DM      FOR CENTER  0  COORDINATES:    0.000000    0.000000    0.000000


 **********************************************************************************************************************************
 DATASETS  * FILE   NREC   LENGTH (MB)   RECORD NAMES
              1      19      311.74       500      610      700      900      950      970     1000      129      960     1100   
                                          VAR    BASINP    GEOM    SYMINP    ZMAT    AOBASIS   BASIS     P2S    ABASIS      S 
                                         1400     1410     1200     1210     1080     1600     1650     1300     1700   
                                           T        V       H0       H01     AOSYM     SMH    MOLCAS    ERIS     OPER   

 PROGRAMS   *        TOTAL       INT
 CPU TIMES  *         6.49      6.38
 REAL TIME  *       200.08 SEC
 DISK USED  *         1.13 GB
 **********************************************************************************************************************************


 PROGRAM * RHF-SCF (CLOSED SHELL)       Authors: W. Meyer, H.-J. Werner


 NUMBER OF ELECTRONS:       9+    9-
 CONVERGENCE THRESHOLDS:    1.00E-05 (Density)    1.00E-07 (Energy)
 MAX. NUMBER OF ITERATIONS:       60
 INTERPOLATION TYPE:            DIIS
 INTERPOLATION STEPS:              2 (START)      1 (STEP)
 LEVEL SHIFTS:                  0.00 (CLOSED)  0.00 (OPEN) 



 Orbital guess generated from atomic densities. Full valence occupancy:   11   3

 Molecular orbital dump at record        2100.2

 Initial occupancy:   7   2

 ITERATION    DDIFF          GRAD             ENERGY        2-EL.EN.            DIPOLE MOMENTS         DIIS   ORB.
    1      0.000D+00      0.000D+00      -115.06158504    164.259618    0.00000    0.89871   -0.47582    0    start
    2      0.000D+00      0.669D-02      -115.08989227    161.700704    0.00000    0.50209   -0.29692    1    diag
    3      0.652D-02      0.368D-02      -115.09746560    162.956334    0.00000    0.60697   -0.39055    2    diag
    4      0.223D-02      0.717D-03      -115.09799678    162.780637    0.00000    0.60330   -0.38567    3    diag
    5      0.593D-03      0.144D-03      -115.09803105    162.793169    0.00000    0.59990   -0.39024    4    diag
    6      0.166D-03      0.268D-04      -115.09803260    162.790230    0.00000    0.60016   -0.39097    5    diag
    7      0.478D-04      0.559D-05      -115.09803267    162.790277    0.00000    0.60001   -0.39121    6    diag
    8      0.120D-04      0.130D-05      -115.09803267    162.790406    0.00000    0.60000   -0.39124    7    diag
    9      0.223D-05      0.333D-06      -115.09803267    162.790317    0.00000    0.59998   -0.39124    0    orth

 Final occupancy:   7   2

 !RHF STATE  1.1 Energy              -115.098032671407
 Nuclear energy                        40.23399193
 One-electron energy                 -236.72718320
 Two-electron energy                   81.39515859
 Virial quotient                       -1.00138733
 !RHF STATE  1.1 Dipole moment          0.00000000     0.59998335    -0.39123743
 Dipole moment /Debye                   0.00000000     1.52490568    -0.99436123

 Orbital energies:

         1.1          2.1          3.1          4.1          5.1          6.1          7.1          8.1          9.1
    -20.556841   -11.273486    -1.357285    -0.922982    -0.690902    -0.590766    -0.501539     0.054564     0.065158

         1.2          2.2          3.2          4.2
     -0.622049    -0.452583     0.073802     0.181445


 HOMO      2.2    -0.452583 =     -12.3154eV
 LUMO      8.1     0.054564 =       1.4848eV
 LUMO-HOMO         0.507147 =      13.8002eV


 **********************************************************************************************************************************
 DATASETS  * FILE   NREC   LENGTH (MB)   RECORD NAMES
              1      19      311.74       500      610      700      900      950      970     1000      129      960     1100   
                                          VAR    BASINP    GEOM    SYMINP    ZMAT    AOBASIS   BASIS     P2S    ABASIS      S 
                                         1400     1410     1200     1210     1080     1600     1650     1300     1700   
                                           T        V       H0       H01     AOSYM     SMH    MOLCAS    ERIS     OPER   

              2       4        3.18       700     1000      520     2100   
                                         GEOM     BASIS   MCVARS     RHF  

 PROGRAMS   *        TOTAL    HF-SCF       INT
 CPU TIMES  *         9.71      3.21      6.38
 REAL TIME  *       213.93 SEC
 DISK USED  *         1.13 GB
 **********************************************************************************************************************************


 PROGRAM * MP2 (Closed-shell)     Authors: C. Hampel, H.-J. Werner, 1991, M. Deegan, P.J. Knowles, 1992

                                   MP2-F12 implementation by H.-J. Werner, 2007

                   Density fitting integral evaluation by F.R. Manby, 2003,2007, G. Knizia, 2010


 Basis set AUG-CC-PVTZ/JKFIT generated.  Number of basis functions:   392 
 Basis set CC-PVTZ-F12/OPTRI generated.  Number of basis functions:   314 
 Basis set AUG-CC-PVTZ/MP2FIT generated. Number of basis functions:   396 

 Convergence thresholds:  THRVAR = 1.00D-08  THRDEN = 1.00D-06

 Number of core orbitals:           2 (   2   0 )
 Number of closed-shell orbitals:   7 (   5   2 )
 Number of external orbitals:     169 ( 107  62 )

 Molecular orbitals read from record     2100.2  Type=RHF/CANONICAL (state 1.1)

 MP2-F12 correlation treatment (H.-J. Werner, 2006)
 ==================================================

 Using MP2-F12 with ansatz 3C(FIX)

 Using projected zeroth-order Hamiltonian (+Z)

 FOCKRIB=T FOCKRIC=T FOCKRIP=T CABSP=T CABSA=T CABSK=T CABSF=T GBC=F EBC=F DMAT=T NOFIK=T NOPAO=1 SOLVE=-1  USEPAO=0
 EXCH_A= T EXCH_B= F EXCH_C= F EXCH_P= F

 Geminal basis:    OPTFULL  GEM_TYPE=SLATER  BETA=1.0  NGEM=6

 Optimizing Gaussian exponents for each gem_beta

 Geminal optimization for beta= 1.0000
 Weight function:   m=0, omega= 1.4646

 Augmented Hessian optimization of geminal fit. Trust ratio= 0.40000
 Convergence reached after   2 iterations. Final gradient= 8.66D-16, Step= 4.23D-06, Delta= 1.28D-09

 Alpha:                 0.19532     0.81920     2.85917     9.50073    35.69989   197.79328
 Coeff:                 0.27070     0.30552     0.18297     0.10986     0.06810     0.04224


 Symmetry turned off. Reference energy:       -115.098032671408

 All pairs explicitly correlated. Number of r12-pairs:           28

 Excluding core orbitals from MO domains

 AO(A)-basis ORBITAL           loaded. Number of functions:     178
 RI(R)-basis CC-PVTZ-F12/OPTRI loaded. Number of functions:     314
 DF-basis AUG-CC-PVTZ/JKFIT    loaded. Number of functions:     392

 Screening thresholds:   THRAO=  1.00D-10  THRMO=  1.00D-09  THRPROD=  1.00D-09
                         THRSW=  1.00D-05  THROV=  1.00D-12  THRAOF12= 1.00D-08

 CPU time for Fock operators                      5.59 sec

 Construction of ABS:
 Smallest eigenvalue of S          4.44E-04  (threshold= 1.00E-08)
 Ratio eigmin/eigmax               5.70E-05  (threshold= 1.00E-09)
 Smallest eigenvalue of S kept     4.44E-04  (threshold= 4.44E-04, 0 functions deleted, 314 kept)

 Construction of CABS:
 Smallest eigenvalue of S          7.68E-07  (threshold= 1.00E-08)
 Ratio eigmin/eigmax               7.68E-07  (threshold= 1.00E-09)
 Smallest eigenvalue of S kept     7.68E-07  (threshold= 7.68E-07, 0 functions deleted, 314 kept)

 CPU time for CABS singles                        0.04 sec

 CABS-singles contribution of  -0.00134422 patched into reference energy.
 New reference energy        -115.09937689

 AO(A)-basis ORBITAL           loaded. Number of functions:     178
 RI(R)-basis CC-PVTZ-F12/OPTRI loaded. Number of functions:     314
 DF-basis AUG-CC-PVTZ/MP2FIT   loaded. Number of functions:     396

 Screening thresholds:   THRAO=  1.00D-10  THRMO=  1.00D-09  THRPROD=  1.00D-09
                         THRSW=  1.00D-05  THROV=  1.00D-12  THRAOF12= 1.00D-08

 CPU time for 3-index integral evaluation         3.46 sec
 CPU time for first  half transformation          0.36 sec ( 6858.5 MFLOP/sec)
 CPU time for second half transformation          0.02 sec ( 3108.5 MFLOP/sec)
 CPU time for fitting                             0.02 sec (56971.3 MFLOP/sec)
 CPU time for tilde quantities                    0.03 sec (50348.4 MFLOP/sec)
 CPU time for assembly                            0.20 sec (61768.0 MFLOP/sec)
 CPU time for tranop_f12                          0.29 sec (54690.4 MFLOP/sec)
 CPU time for f12 integrals (total)               7.45 sec, Elapsed time:      7.94 sec
 CPU time for f12 matrices (total)                0.12 sec, Elapsed time:      0.26 sec

 Diagonal F12 approximation with fixed coefficients:  TSING= 0.500,  TTRIP= 0.250 (scaled by -1/beta)

 DF-MP2-F12 energy corrections:
 ==============================
 Approx.                                    Singlet             Triplet             Total
 DF-MP2-F12/3*C(DX,FIX)                -0.038229301440     -0.004205350370     -0.042434651811
 DF-MP2-F12/3*C(FIX)                   -0.036043655372     -0.003925287390     -0.039968942761
 DF-MP2-F12/3C(FIX)                    -0.035986982725     -0.004060562620     -0.040047545345

 DF-MP2-F12 correlation energies:
 ================================
 Approx.                                    Singlet             Triplet             Ecorr            Total Energy
 DF-MP2                                -0.291339506510     -0.152367616380     -0.443707122890   -115.543084013061
 DF-MP2-F12/3*C(DX,FIX)                -0.329568807950     -0.156572966751     -0.486141774701   -115.585518664872
 DF-MP2-F12/3*C(FIX)                   -0.327383161881     -0.156292903770     -0.483676065652   -115.583052955822
 DF-MP2-F12/3C(FIX)                    -0.327326489235     -0.156428179000     -0.483754668235   -115.583131558406

 SCS-DF-MP2 energies (F_SING= 1.20000  F_TRIP= 0.62222  F_PARALLEL= 0.33333):
 ============================================================================
 SCS-DF-MP2                            -0.444413924671   -115.543790814842
 SCS-DF-MP2-F12/3*C(DX,FIX)            -0.492905748852   -115.592282639022
 SCS-DF-MP2-F12/3*C(FIX)               -0.490108712159   -115.589485602330
 SCS-DF-MP2-F12/3C(FIX)                -0.490124876237   -115.589501766408

 Symmetry restored.
 Symmetry transformation completed.

 Number of N-1 electron functions:               7
 Number of N-2 electron functions:              28
 Number of singly external CSFs:               659
 Number of doubly external CSFs:            355020
 Total number of CSFs:                      355680

 Length of J-op  integral file:             103.49 MB
 Length of K-op  integral file:             127.95 MB

 Integral transformation finished. Total CPU:   0.48 sec, npass=  1  Memory used:   0.67 MW

 ITER.      SQ.NORM     CORR.ENERGY   TOTAL ENERGY   ENERGY CHANGE     VAR   MIC
   1      1.00000000    -0.44377386  -115.54315075    -0.44377386  0.00D+00   0
   2      1.11524614    -0.44377386  -115.54315075     0.00000000 -0.40D-15   0

 Solving MP2-F12 equations

   1      1.11520937    -0.48306297  -115.58243986    -0.03928911 -0.38D-04   0
   2      1.11520937    -0.48381998  -115.58319687    -0.00075702  0.12D-17   0
   3      1.11520937    -0.48381998  -115.58319687     0.00000000  0.11D-18   0

 CPU TIME FOR ITERATIVE MP2:    0.04 SEC


 MP2-F12 energy corrections:
 ===========================
 Approx.                                    Singlet             Triplet             Total
 MP2-F12/3*C(DX,FIX)                   -0.038229301440     -0.004205350370     -0.042434651811
 MP2-F12/3*C(FIX)                      -0.036043655372     -0.003925287390     -0.039968942761
 MP2-F12/3C(FIX)                       -0.035984278318     -0.004061842915     -0.040046121233

 MP2-F12 correlation energies:
 =============================
 Approx.                                    Singlet             Triplet             Ecorr            Total Energy
 MP2                                   -0.291523039761     -0.152250821381     -0.443773861143   -115.543150751313
 MP2-F12/3*C(DX,FIX)                   -0.329752341202     -0.156456171751     -0.486208512953   -115.585585403124
 MP2-F12/3*C(FIX)                      -0.327566695133     -0.156176108771     -0.483742803904   -115.583119694075
 MP2-F12/3C(FIX)                       -0.327507318080     -0.156312664296     -0.483819982376   -115.583196872547

 SCS-MP2 energies (F_SING= 1.20000  F_TRIP= 0.62222  F_PARALLEL= 0.33333):
 =========================================================================
 SCS-MP2                               -0.444561492129   -115.543938382299
 SCS-MP2-F12/3*C(DX,FIX)               -0.493053316310   -115.592430206480
 SCS-MP2-F12/3*C(FIX)                  -0.490256279617   -115.589633169788
 SCS-MP2-F12/3C(FIX)                   -0.490269995036   -115.589646885206


  Reference energy                   -115.098032671408
  F12 singles correction               -0.001344218763

 F12 singles corrections added to reference energy

  New reference energy               -115.099376890171

  F12/3C(F) singlet correction         -0.035984278318
  F12/3C(F) triplet correction         -0.004061842915
  F12/3C(F) total correction           -0.040046121233
  MP2-F12/3C(F) singlet pair energy    -0.327507318080
  MP2-F12/3C(F) triplet pair energy    -0.156312664296
  MP2-F12/3C(F) correlation energy     -0.483819982376

 !MP2-F12/3C(F) total energy         -115.583196872547


 **********************************************************************************************************************************
 DATASETS  * FILE   NREC   LENGTH (MB)   RECORD NAMES
              1      20      317.48       500      610      700      900      950      970     1000      129      960     1100   
                                          VAR    BASINP    GEOM    SYMINP    ZMAT    AOBASIS   BASIS     P2S    ABASIS      S 
                                         1400     1410     1200     1210     1080     1600     1650     1300     1700     1380   
                                           T        V       H0       H01     AOSYM     SMH    MOLCAS    ERIS     OPER     JKOP   

              2       7        3.55       700     1000      520     2100     7360     7350     7000   
                                         GEOM     BASIS   MCVARS     RHF    F12ABS    EF12   

 PROGRAMS   *        TOTAL   MP2-F12    HF-SCF       INT
 CPU TIMES  *        23.68     13.97      3.21      6.38
 REAL TIME  *       229.81 SEC
 DISK USED  *         1.13 GB
 **********************************************************************************************************************************


 PROGRAM * CCSD (Closed-shell coupled cluster)     Authors: C. Hampel, H.-J. Werner, 1991, M. Deegan, P.J. Knowles, 1992

                                  CCSD-F12 implementation by  H.-J. Werner, 2007

                   Density fitting integral evaluation by F.R. Manby, 2003,2007, G. Knizia, 2010



 Convergence thresholds:  THRVAR = 1.00D-08  THRDEN = 1.00D-06

 CCSD(T)     terms to be evaluated (factor= 1.000)


 Number of core orbitals:           2 (   2   0 )
 Number of closed-shell orbitals:   7 (   5   2 )
 Number of external orbitals:     169 ( 107  62 )

 Molecular orbitals read from record     2100.2  Type=RHF/CANONICAL (state 1.1)

 MP2-F12 correlation treatment (H.-J. Werner, 2006)
 ==================================================

 Using MP2-F12 with ansatz 3C(FIX)

 Using projected zeroth-order Hamiltonian (+Z)

 FOCKRIB=T FOCKRIC=T FOCKRIP=T CABSP=T CABSA=T CABSK=T CABSF=T GBC=F EBC=F DMAT=T NOFIK=T NOPAO=1 SOLVE=-1  USEPAO=0
 EXCH_A= T EXCH_B= F EXCH_C= F EXCH_P= F

 Geminal basis:    OPTFULL  GEM_TYPE=SLATER  BETA=1.0  NGEM=6

 Optimizing Gaussian exponents for each gem_beta

 Geminal optimization for beta= 1.0000
 Weight function:   m=0, omega= 1.4646

 Augmented Hessian optimization of geminal fit. Trust ratio= 0.40000
 Convergence reached after   2 iterations. Final gradient= 8.66D-16, Step= 4.23D-06, Delta= 1.28D-09

 Alpha:                 0.19532     0.81920     2.85917     9.50073    35.69989   197.79328
 Coeff:                 0.27070     0.30552     0.18297     0.10986     0.06810     0.04224


 Symmetry turned off. Reference energy:       -115.098032671408

 All pairs explicitly correlated. Number of r12-pairs:           28

 Excluding core orbitals from MO domains

 AO(A)-basis ORBITAL           loaded. Number of functions:     178
 RI(R)-basis CC-PVTZ-F12/OPTRI loaded. Number of functions:     314
 DF-basis AUG-CC-PVTZ/JKFIT    loaded. Number of functions:     392

 Screening thresholds:   THRAO=  1.00D-10  THRMO=  1.00D-09  THRPROD=  1.00D-09
                         THRSW=  1.00D-05  THROV=  1.00D-12  THRAOF12= 1.00D-08

 CPU time for Fock operators                      5.63 sec

 Construction of ABS:
 Smallest eigenvalue of S          4.44E-04  (threshold= 1.00E-08)
 Ratio eigmin/eigmax               5.70E-05  (threshold= 1.00E-09)
 Smallest eigenvalue of S kept     4.44E-04  (threshold= 4.44E-04, 0 functions deleted, 314 kept)

 Construction of CABS:
 Smallest eigenvalue of S          7.68E-07  (threshold= 1.00E-08)
 Ratio eigmin/eigmax               7.68E-07  (threshold= 1.00E-09)
 Smallest eigenvalue of S kept     7.68E-07  (threshold= 7.68E-07, 0 functions deleted, 314 kept)

 CPU time for CABS singles                        0.04 sec

 CABS-singles contribution of  -0.00134422 patched into reference energy.
 New reference energy        -115.09937689

 AO(A)-basis ORBITAL           loaded. Number of functions:     178
 RI(R)-basis CC-PVTZ-F12/OPTRI loaded. Number of functions:     314
 DF-basis AUG-CC-PVTZ/MP2FIT   loaded. Number of functions:     396

 Screening thresholds:   THRAO=  1.00D-10  THRMO=  1.00D-09  THRPROD=  1.00D-09
                         THRSW=  1.00D-05  THROV=  1.00D-12  THRAOF12= 1.00D-08

 CPU time for 3-index integral evaluation         3.70 sec
 CPU time for first  half transformation          0.26 sec ( 9496.4 MFLOP/sec)
 CPU time for second half transformation          0.01 sec ( 6217.0 MFLOP/sec)
 CPU time for fitting                             0.04 sec (28485.6 MFLOP/sec)
 CPU time for tilde quantities                    0.02 sec (75522.6 MFLOP/sec)
 CPU time for assembly                            0.22 sec (56152.7 MFLOP/sec)
 CPU time for tranop_f12                          0.31 sec (51162.0 MFLOP/sec)
 CPU time for f12 integrals (total)               7.58 sec, Elapsed time:      7.99 sec
 CPU time for f12 matrices (total)                0.11 sec, Elapsed time:      0.14 sec

 Diagonal F12 approximation with fixed coefficients:  TSING= 0.500,  TTRIP= 0.250 (scaled by -1/beta)

 DF-MP2-F12 energy corrections:
 ==============================
 Approx.                                    Singlet             Triplet             Total
 DF-MP2-F12/3*C(DX,FIX)                -0.038229301440     -0.004205350370     -0.042434651811
 DF-MP2-F12/3*C(FIX)                   -0.036043655372     -0.003925287390     -0.039968942761
 DF-MP2-F12/3C(FIX)                    -0.035986982725     -0.004060562620     -0.040047545345

 DF-MP2-F12 correlation energies:
 ================================
 Approx.                                    Singlet             Triplet             Ecorr            Total Energy
 DF-MP2                                -0.291339506510     -0.152367616380     -0.443707122890   -115.543084013061
 DF-MP2-F12/3*C(DX,FIX)                -0.329568807950     -0.156572966751     -0.486141774701   -115.585518664872
 DF-MP2-F12/3*C(FIX)                   -0.327383161881     -0.156292903770     -0.483676065652   -115.583052955822
 DF-MP2-F12/3C(FIX)                    -0.327326489235     -0.156428179000     -0.483754668235   -115.583131558406

 SCS-DF-MP2 energies (F_SING= 1.20000  F_TRIP= 0.62222  F_PARALLEL= 0.33333):
 ============================================================================
 SCS-DF-MP2                            -0.444413924671   -115.543790814842
 SCS-DF-MP2-F12/3*C(DX,FIX)            -0.492905748852   -115.592282639022
 SCS-DF-MP2-F12/3*C(FIX)               -0.490108712159   -115.589485602330
 SCS-DF-MP2-F12/3C(FIX)                -0.490124876237   -115.589501766408

 Symmetry restored.
 Symmetry transformation completed.

 Number of N-1 electron functions:               7
 Number of N-2 electron functions:              28
 Number of singly external CSFs:               659
 Number of doubly external CSFs:            355020
 Total number of CSFs:                      355680

 Length of J-op  integral file:             103.62 MB
 Length of K-op  integral file:             127.95 MB
 Length of 3-ext integral record:             0.00 MB

 Memory could be reduced to 24.20 Mwords without degradation in triples

 Integral transformation finished. Total CPU:   1.39 sec, npass=  1  Memory used:   7.45 MW

 Reference energy:                   -115.09937689

 Adding F12 terms to K(Cij), methodcc=6,  factor= 1.0

 ITER.      SQ.NORM     CORR.ENERGY   TOTAL ENERGY   ENERGY CHANGE        DEN1      VAR(S)    VAR(P)  DIIS     TIME  TIME/IT
   1      1.11823094    -0.45315918  -115.55253607    -0.00938532     0.00169586  0.15D-02  0.19D-02  1  1    15.74     0.97
   2      1.12574259    -0.45354002  -115.55291691    -0.00038084    -0.00910831  0.24D-04  0.23D-03  2  2    16.67     1.00
   3      1.12853713    -0.45372287  -115.55309976    -0.00018285    -0.00189615  0.15D-04  0.14D-04  3  3    17.60     1.01
   4      1.12950731    -0.45374075  -115.55311764    -0.00001788    -0.00061110  0.86D-06  0.12D-05  4  4    18.52     1.02
   5      1.12966562    -0.45374254  -115.55311943    -0.00000179    -0.00003849  0.23D-06  0.10D-06  5  5    19.46     1.02
   6      1.12970871    -0.45374021  -115.55311710     0.00000233    -0.00000428  0.35D-07  0.98D-08  6  6    20.39     1.02
   7      1.12971982    -0.45373932  -115.55311621     0.00000089    -0.00000303  0.39D-08  0.14D-08  6  1    21.32     1.03
   8      1.12972159    -0.45373938  -115.55311627    -0.00000006     0.00000033  0.67D-09  0.20D-09  6  3    22.24     1.03

 Norm of t1 vector:      0.05029074      S-energy:    -0.00000033      T1 diagnostic:  0.00950406
                                                                       D1 diagnostic:  0.02004798

 Adding energy correction from Wij-K(Fij), methodcc=6  factor= 1.0

  CCSD correlation energy              -0.453739383288
  MP2-F12 correction (uncoupled)       -0.038493352868
  C*T doubles correction               -0.001166101054
  f12b correction                       0.007098432799


 Total CPU time for triples:     13.60 sec


 RESULTS
 =======

  Reference energy                   -115.098032671408
  F12 singles correction               -0.001344218763

 F12 singles corrections added to reference energy

  New reference energy               -115.099376890171

  F12a singlet correction              -0.035746415086
  F12a triplet correction              -0.003913038836
  F12a total correction                -0.039659453922

 F12a corrections for ansatz F12/3C(FIX) added to CCSD energy

  CCSD-F12a singlet pair energy        -0.351563031409
  CCSD-F12a triplet pair energy        -0.141835473301
  CCSD-F12a correlation energy         -0.493398837210

  Triples (T) contribution             -0.016080307127
  Total correlation energy             -0.509479144338

  CCSD-F12a total energy             -115.592775727381
  CCSD[T]-F12a energy                -115.609416385273
  CCSD-T-F12a energy                 -115.608609225181
 !CCSD(T)-F12a total energy          -115.608856034509

 F12b corrections for ansatz F12/3C(FIX) added to CCSD(T)-F12a energy

  CCSD-F12b singlet pair energy        -0.344925880578
  CCSD-F12b triplet pair energy        -0.141374191333
  CCSD-F12b correlation energy         -0.486300404411

  Triples (T) contribution             -0.016080307127
  Total correlation energy             -0.502380711539

  CCSD-F12b total energy             -115.585677294582
  CCSD[T]-F12b energy                -115.602317952474
  CCSD-T-F12b energy                 -115.601510792382
 !CCSD(T)-F12b total energy          -115.601757601710

 Timing summary (sec):

 STEP                 CPU(USER)    SYS     CPU(TOT)    WALL
 Transformation          1.40      0.23      1.63      1.63
 CCSD iterations         7.41      0.81      8.22      8.25
 Triples                13.60      0.50     14.10     14.13
 MP2-F12                13.44      0.62     14.06     14.23
 F12b energy             0.74      0.06      0.80      0.81

 Program statistics:

 Available memory in ccsd:               499999650
 Min. memory needed in ccsd:               1149135
 Max. memory used in ccsd:                 1443104
 Max. memory used in cckext:               1888566 ( 9 integral passes)



 **********************************************************************************************************************************
 DATASETS  * FILE   NREC   LENGTH (MB)   RECORD NAMES
              1      20      386.05       500      610      700      900      950      970     1000      129      960     1100   
                                          VAR    BASINP    GEOM    SYMINP    ZMAT    AOBASIS   BASIS     P2S    ABASIS      S 
                                         1400     1410     1200     1210     1080     1600     1650     1300     1700     1380   
                                           T        V       H0       H01     AOSYM     SMH    MOLCAS    ERIS     OPER     JKOP   

              2       7        3.55       700     1000      520     2100     7360     7350     7000   
                                         GEOM     BASIS   MCVARS     RHF    F12ABS    EF12   

 PROGRAMS   *        TOTAL   CCSD(T)   MP2-F12    HF-SCF       INT
 CPU TIMES  *        60.30     36.62     13.97      3.21      6.38
 REAL TIME  *       268.92 SEC
 DISK USED  *         1.13 GB
 **********************************************************************************************************************************
 SETTING XXX            =    "MMM"
 SETTING POINT          =        48.00000000                                  

 *** ### CH3OH


 XXX       RCO          ROH          RCH1         RCH2         RCH3           ACOH           AOCH1          AOCH2          AOCH3         AHH1           AHH2           AHH3            ENERGY       POINT
 "MMM"   1.42077677   0.96013932   1.09171752   1.11440070   1.09171752   108.12930637   111.65221523   107.18733878   111.65221523   61.43364279   180.00000000   298.56635721   -115.60885603   48.0000
                                                  

 CCSD(T)-F12/cc-pVTZ-F12 energy=   -115.601757601710

     CCSD(T)-F12         MP2-F12          HF-SCF
   -115.60175760   -115.58319687   -115.09803267
 **********************************************************************************************************************************
 Molpro calculation terminated
