
 Primary working directories    : /tmpdir/job/2955699.undefined/molpro.6eTG321LBH
 Secondary working directories  : /tmpdir/job/2955699.undefined/molpro.6eTG321LBH
 Wavefunction directory         : /home/zcaposm/wfu/
 Main file repository           : /tmpdir/job/2955699.undefined/molpro.6eTG321LBH/

 id        : uclcc

 Nodes                         nprocs
 node-h00a-014.myriad.ucl.ac.uk    1

 Using customized tuning parameters: mindgm=1; mindgv=20; mindgc=4; mindgr=1; noblas=0; minvec=7
 default implementation of scratch files=df  


 Variables initialized (945), CPU time= 0.01 sec
 ***,Methanol Ground State Energy with CCSD(T)-F12 and cc-pVTZ-F12
 memory,500,m;
 
 geometry={angstrom
 c
 o , 1, rco
 h , 2, roh, 1, acoh
 h1, 1, rch1, 2, aoch1  3  ahh1
 h2, 1, rch2, 2, aoch2, 3, ahh2
 h3, 1, rch3, 2, aoch3, 3, ahh3
 }
 
                                                ! Specify the initial values of the internal coordinates (in Angstroms and degrees)
 
 rco= 1.42077677
 roh= 0.96013932
 rch1= 1.0917942654039392
 rch2= 1.084422764425207
 rch3= 1.0916019647216715
 acoh= 108.12930637
 aoch1= 111.60406621757318
 aoch2= 107.20034982090993
 aoch3= 111.6925529988777
 ahh1=65.43364279
 ahh2=184.0
 ahh3=302.56635721
 
                                                                                 ! Use the cc-pVTZ-F12 basis set
 basis=cc-pVTZ-F12
 
 hf
 
                                                                                 ! Use explicitly correlated F12 methods
                                                                            ! First, MP2-F12 (useful for initial electronic energy)
 {mp2-f12}
 
                                                                        ! If desired, perform CCSD(T)-F12 for more accurate results
 {ccsd(t)-f12}
 
                                                                                 ! Output the energy
 xxx = "mmm"
 point = 126
 text ### CH3OH
 table,xxx,rco,roh,rch1,rch2,rch3,acoh,aoch1,aoch2,aoch3,ahh1,ahh2,ahh3,energy,point
 DIGITS, 0, 8, 8, 8, 8, 8, 8, 8, 8, 8,  8,  8,  8, 8, 4
 save,CH3OH_MEP_MP2_126.dat,new
 
 Commands  initialized (802), CPU time= 0.01 sec, 659 directives.
 Default parameters read. Elapsed time= 0.80 sec

 Checking input...
 Passed
1


                                         ***  PROGRAM SYSTEM MOLPRO  ***
                                       Copyright, TTI GmbH Stuttgart, 2015
                                    Version 2020.1 linked Oct  6 2020 12:04:11


 **********************************************************************************************************************************
 LABEL *   Methanol Ground State Energy with CCSD(T)-F12 and cc-pVTZ-F12                 
  64 bit serial version                                                                  DATE: 08-Oct-24          TIME: 17:40:57  
 **********************************************************************************************************************************

 SHA1:             8c27446f6450a7499e38f603e13c65f775101d37
 **********************************************************************************************************************************

 Memory per process:       500 MW
 Total memory per node:    500 MW

 GA preallocation disabled
 GA check disabled

 Variable memory set to 500.0 MW

 SETTING RCO            =         1.42077677                                  
 SETTING ROH            =         0.96013932                                  
 SETTING RCH1           =         1.09179427                                  
 SETTING RCH2           =         1.08442276                                  
 SETTING RCH3           =         1.09160196                                  
 SETTING ACOH           =       108.12930637                                  
 SETTING AOCH1          =       111.60406622                                  
 SETTING AOCH2          =       107.20034982                                  
 SETTING AOCH3          =       111.69255300                                  
 SETTING AHH1           =        65.43364279                                  
 SETTING AHH2           =       184.00000000                                  
 SETTING AHH3           =       302.56635721                                  
 SETTING BASIS          =    CC-PVTZ-F12


 Recomputing integrals since basis changed


 Using spherical harmonics

 Library entry C      S cc-pVTZ-F12          selected for orbital group  1
 Library entry C      P cc-pVTZ-F12          selected for orbital group  1
 Library entry C      D cc-pVTZ-F12          selected for orbital group  1
 Library entry C      F cc-pVTZ-F12          selected for orbital group  1
 Library entry O      S cc-pVTZ-F12          selected for orbital group  2
 Library entry O      P cc-pVTZ-F12          selected for orbital group  2
 Library entry O      D cc-pVTZ-F12          selected for orbital group  2
 Library entry O      F cc-pVTZ-F12          selected for orbital group  2
 Library entry H      S cc-pVTZ-F12          selected for orbital group  3
 Library entry H      P cc-pVTZ-F12          selected for orbital group  3
 Library entry H      D cc-pVTZ-F12          selected for orbital group  3


 PROGRAM * SEWARD (Integral evaluation for generally contracted gaussian basis sets)     Author: Roland Lindh, 1990

 Geometry written to block  1 of record 700

 Orientation using atomic masses  
 Molecule type: Asymmetric top
 Rotational constants:      23.9583446     24.8080554    128.7850281 GHz  (calculated with average atomic masses)

 Point group  C1  



 ATOMIC COORDINATES

 NR  ATOM    CHARGE       X              Y              Z

   1  C       6.00    0.000282233    0.025194043   -1.376586878
   2  O       8.00   -0.000133860   -0.122080100    1.304249799
   3  H       1.00    0.005290960    1.568673845    1.962558482
   4  H1      1.00    1.747554543    0.857582628   -2.091380938
   5  H2      1.00   -0.142422094   -1.891021320   -2.088787001
   6  H3      1.00   -1.611661804    1.102364993   -2.081286544

 Bond lengths in Bohr (Angstrom)

 1-2  2.684878979  1-4  2.063192146  1-5  2.049262028  1-6  2.062828750  2-3  1.814400356
     ( 1.420776770)     ( 1.091794265)     ( 1.084422764)     ( 1.091601965)     ( 0.960139320)

 Bond angles

  1-2-3  108.12930637   2-1-4  111.60406622   2-1-5  107.20034982   2-1-6  111.69255300

  4-1-5  108.41045212   4-1-6  109.43544942   5-1-6  108.36910843

 NUCLEAR CHARGE:                   18
 NUMBER OF PRIMITIVE AOS:         228
 NUMBER OF SYMMETRY AOS:          206
 NUMBER OF CONTRACTIONS:          178   (  178A   )
 NUMBER OF INNER CORE ORBITALS:     0   (    0A   )
 NUMBER OF OUTER CORE ORBITALS:     2   (    2A   )
 NUMBER OF VALENCE ORBITALS:       12   (   12A   )


 NUCLEAR REPULSION ENERGY   40.34555932

 Eigenvalues of metric

         1 0.880E-04 0.184E-03 0.309E-03 0.322E-03 0.460E-03 0.493E-03 0.560E-03 0.570E-03


 Contracted 2-electron integrals neglected if value below      1.0D-11
 AO integral compression algorithm  1   Integral accuracy      1.0D-11

     609.485 MB (compressed) written to integral file ( 51.1%)


 NUMBER OF SORTED TWO-ELECTRON INTEGRALS:  126906346.     BUFFER LENGTH:  32768
 NUMBER OF SEGMENTS:   8  SEGMENT LENGTH:   15999503      RECORD LENGTH: 524288

 Memory used in sort:      16.56 MW

 SORT1 READ   149034713. AND WROTE   124792570. INTEGRALS IN    360 RECORDS. CPU TIME:     1.75 SEC, REAL TIME:    25.82 SEC
 SORT2 READ   124792570. AND WROTE   126906346. INTEGRALS IN   2325 RECORDS. CPU TIME:     1.93 SEC, REAL TIME:    46.73 SEC

 FILE SIZES:   FILE 1:   640.7 MBYTE,  FILE 4:  1510.0 MBYTE,   TOTAL:   2150.7 MBYTE

 OPERATOR DM      FOR CENTER  0  COORDINATES:    0.000000    0.000000    0.000000


 **********************************************************************************************************************************
 DATASETS  * FILE   NREC   LENGTH (MB)   RECORD NAMES
              1      19      562.67       500      610      700      900      950      970     1000      129      960     1100   
                                          VAR    BASINP    GEOM    SYMINP    ZMAT    AOBASIS   BASIS     P2S    ABASIS      S 
                                         1400     1410     1200     1210     1080     1600     1650     1300     1700   
                                           T        V       H0       H01     AOSYM     SMH    MOLCAS    ERIS     OPER   

 PROGRAMS   *        TOTAL       INT
 CPU TIMES  *         9.51      9.38
 REAL TIME  *        85.97 SEC
 DISK USED  *         2.15 GB
 **********************************************************************************************************************************


 PROGRAM * RHF-SCF (CLOSED SHELL)       Authors: W. Meyer, H.-J. Werner


 NUMBER OF ELECTRONS:       9+    9-    SPACE SYMMETRY=1    SPIN SYMMETRY: Singlet 
 CONVERGENCE THRESHOLDS:    1.00E-05 (Density)    1.00E-07 (Energy)
 MAX. NUMBER OF ITERATIONS:       60
 INTERPOLATION TYPE:            DIIS
 INTERPOLATION STEPS:              2 (START)      1 (STEP)
 LEVEL SHIFTS:                  0.00 (CLOSED)  0.00 (OPEN) 



 Orbital guess generated from atomic densities. Full valence occupancy:   14

 Molecular orbital dump at record        2100.2

 Initial occupancy:   9

 ITERATION    DDIFF          GRAD             ENERGY        2-EL.EN.            DIPOLE MOMENTS         DIIS   ORB.
    1      0.000D+00      0.000D+00      -115.06235513    164.484527   -0.00001    0.90456   -0.47795    0    start
    2      0.000D+00      0.506D-02      -115.09070821    161.902305   -0.00134    0.49681   -0.30365    1    diag
    3      0.480D-02      0.277D-02      -115.09819475    163.165547   -0.00070    0.60014   -0.39687    2    diag
    4      0.163D-02      0.546D-03      -115.09872701    162.989004   -0.00068    0.59503   -0.39231    3    diag
    5      0.436D-03      0.110D-03      -115.09876139    163.000478   -0.00068    0.59106   -0.39713    4    diag
    6      0.121D-03      0.205D-04      -115.09876295    162.998257   -0.00068    0.59120   -0.39792    5    diag
    7      0.349D-04      0.434D-05      -115.09876302    162.997874   -0.00068    0.59102   -0.39819    6    diag
    8      0.875D-05      0.114D-05      -115.09876303    162.998219   -0.00069    0.59101   -0.39820    0    orth

 Final occupancy:   9

 !RHF STATE  1.1 Energy              -115.098763025526
 Nuclear energy                        40.34555932
 One-electron energy                 -236.94343199
 Two-electron energy                   81.49910964
 Virial quotient                       -1.00101549
 !RHF STATE  1.1 Dipole moment         -0.00068583     0.59101339    -0.39820396
 Dipole moment /Debye                  -0.00174309     1.50210782    -1.01206721

 Orbital energies:

         1.1          2.1          3.1          4.1          5.1          6.1          7.1          8.1          9.1         10.1
    -20.556332   -11.269756    -1.356921    -0.926368    -0.690817    -0.621554    -0.594400    -0.504316    -0.452142     0.054652

        11.1
      0.065014


 HOMO      9.1    -0.452142 =     -12.3034eV
 LUMO     10.1     0.054652 =       1.4872eV
 LUMO-HOMO         0.506794 =      13.7906eV


 **********************************************************************************************************************************
 DATASETS  * FILE   NREC   LENGTH (MB)   RECORD NAMES
              1      19      562.67       500      610      700      900      950      970     1000      129      960     1100   
                                          VAR    BASINP    GEOM    SYMINP    ZMAT    AOBASIS   BASIS     P2S    ABASIS      S 
                                         1400     1410     1200     1210     1080     1600     1650     1300     1700   
                                           T        V       H0       H01     AOSYM     SMH    MOLCAS    ERIS     OPER   

              2       4        3.48       700     1000      520     2100   
                                         GEOM     BASIS   MCVARS     RHF  

 PROGRAMS   *        TOTAL    HF-SCF       INT
 CPU TIMES  *        18.62      9.11      9.38
 REAL TIME  *        99.51 SEC
 DISK USED  *         2.15 GB
 **********************************************************************************************************************************


 PROGRAM * MP2 (Closed-shell)     Authors: C. Hampel, H.-J. Werner, 1991, M. Deegan, P.J. Knowles, 1992

                                   MP2-F12 implementation by H.-J. Werner, 2007

                   Density fitting integral evaluation by F.R. Manby, 2003,2007, G. Knizia, 2010


 Basis set AUG-CC-PVTZ/JKFIT generated.  Number of basis functions:   392 
 Basis set CC-PVTZ-F12/OPTRI generated.  Number of basis functions:   314 
 Basis set AUG-CC-PVTZ/MP2FIT generated. Number of basis functions:   396 

 Convergence thresholds:  THRVAR = 1.00D-08  THRDEN = 1.00D-06

 Number of core orbitals:           2 (   2 )
 Number of closed-shell orbitals:   7 (   7 )
 Number of external orbitals:     169 ( 169 )

 Molecular orbitals read from record     2100.2  Type=RHF/CANONICAL (state 1.1)

 MP2-F12 correlation treatment (H.-J. Werner, 2006)
 ==================================================

 Using MP2-F12 with ansatz 3C(FIX)

 Using projected zeroth-order Hamiltonian (+Z)

 FOCKRIB=T FOCKRIC=T FOCKRIP=T CABSP=T CABSA=T CABSK=T CABSF=T GBC=F EBC=F DMAT=T NOFIK=T NOPAO=1 SOLVE=-1  USEPAO=0
 EXCH_A= T EXCH_B= F EXCH_C= F EXCH_P= F

 Geminal basis:    OPTFULL  GEM_TYPE=SLATER  BETA=1.0  NGEM=6

 Optimizing Gaussian exponents for each gem_beta

 Geminal optimization for beta= 1.0000
 Weight function:   m=0, omega= 1.4646

 Augmented Hessian optimization of geminal fit. Trust ratio= 0.40000
 Convergence reached after   2 iterations. Final gradient= 8.66D-16, Step= 4.23D-06, Delta= 1.28D-09

 Alpha:                 0.19532     0.81920     2.85917     9.50073    35.69989   197.79328
 Coeff:                 0.27070     0.30552     0.18297     0.10986     0.06810     0.04224


 All pairs explicitly correlated. Number of r12-pairs:           28

 Excluding core orbitals from MO domains

 AO(A)-basis ORBITAL           loaded. Number of functions:     178
 RI(R)-basis CC-PVTZ-F12/OPTRI loaded. Number of functions:     314
 DF-basis AUG-CC-PVTZ/JKFIT    loaded. Number of functions:     392

 Screening thresholds:   THRAO=  1.00D-10  THRMO=  1.00D-09  THRPROD=  1.00D-09
                         THRSW=  1.00D-05  THROV=  1.00D-12  THRAOF12= 1.00D-08

 CPU time for Fock operators                      1.71 sec

 Construction of ABS:
 Smallest eigenvalue of S          4.35E-04  (threshold= 1.00E-08)
 Ratio eigmin/eigmax               5.56E-05  (threshold= 1.00E-09)
 Smallest eigenvalue of S kept     4.35E-04  (threshold= 4.35E-04, 0 functions deleted, 314 kept)

 Construction of CABS:
 Smallest eigenvalue of S          7.26E-07  (threshold= 1.00E-08)
 Ratio eigmin/eigmax               7.26E-07  (threshold= 1.00E-09)
 Smallest eigenvalue of S kept     7.26E-07  (threshold= 7.26E-07, 0 functions deleted, 314 kept)

 CPU time for CABS singles                        0.05 sec

 CABS-singles contribution of  -0.00135357 patched into reference energy.
 New reference energy        -115.10011660

 AO(A)-basis ORBITAL           loaded. Number of functions:     178
 RI(R)-basis CC-PVTZ-F12/OPTRI loaded. Number of functions:     314
 DF-basis AUG-CC-PVTZ/MP2FIT   loaded. Number of functions:     396

 Screening thresholds:   THRAO=  1.00D-10  THRMO=  1.00D-09  THRPROD=  1.00D-09
                         THRSW=  1.00D-05  THROV=  1.00D-12  THRAOF12= 1.00D-08

 CPU time for 3-index integral evaluation         3.87 sec
 CPU time for first  half transformation          0.43 sec ( 5742.0 MFLOP/sec)
 CPU time for sorting                             0.02 sec
 CPU time for fitting                             0.03 sec (37980.8 MFLOP/sec)
 CPU time for tilde quantities                    0.02 sec (75522.6 MFLOP/sec)
 CPU time for assembly                            0.26 sec (47513.8 MFLOP/sec)
 CPU time for tranop_f12                          0.32 sec (49563.2 MFLOP/sec)
 CPU time for f12 integrals (total)               5.51 sec, Elapsed time:      6.43 sec
 CPU time for f12 matrices (total)                0.13 sec, Elapsed time:      0.27 sec

 Diagonal F12 approximation with fixed coefficients:  TSING= 0.500,  TTRIP= 0.250 (scaled by -1/beta)

 DF-MP2-F12 energy corrections:
 ==============================
 Approx.                                    Singlet             Triplet             Total
 DF-MP2-F12/3*C(DX,FIX)                -0.038287698651     -0.004212696918     -0.042500395569
 DF-MP2-F12/3*C(FIX)                   -0.036088854633     -0.003930957461     -0.040019812094
 DF-MP2-F12/3C(FIX)                    -0.036031556923     -0.004065926977     -0.040097483900

 DF-MP2-F12 correlation energies:
 ================================
 Approx.                                    Singlet             Triplet             Ecorr            Total Energy
 DF-MP2                                -0.291095637230     -0.152364259855     -0.443459897085   -115.543576495415
 DF-MP2-F12/3*C(DX,FIX)                -0.329383335880     -0.156576956773     -0.485960292653   -115.586076890983
 DF-MP2-F12/3*C(FIX)                   -0.327184491862     -0.156295217316     -0.483479709178   -115.583596307508
 DF-MP2-F12/3C(FIX)                    -0.327127194153     -0.156430186832     -0.483557380985   -115.583673979315

 SCS-DF-MP2 energies (F_SING= 1.20000  F_TRIP= 0.62222  F_PARALLEL= 0.33333):
 ============================================================================
 SCS-DF-MP2                            -0.444119193030   -115.544235791360
 SCS-DF-MP2-F12/3*C(DX,FIX)            -0.492685665048   -115.592802263378
 SCS-DF-MP2-F12/3*C(FIX)               -0.489871747676   -115.589988346006
 SCS-DF-MP2-F12/3C(FIX)                -0.489886971456   -115.590003569787
 Symmetry transformation completed.

 Number of N-1 electron functions:               7
 Number of N-2 electron functions:              28
 Number of singly external CSFs:              1183
 Number of doubly external CSFs:            700336
 Total number of CSFs:                      701520

 Length of J-op  integral file:             104.98 MB
 Length of K-op  integral file:             138.67 MB

 Integral transformation finished. Total CPU:   1.68 sec, npass=  1  Memory used:   2.18 MW

 ITER.      SQ.NORM     CORR.ENERGY   TOTAL ENERGY   ENERGY CHANGE     VAR   MIC
   1      1.00000000    -0.44352630  -115.54364290    -0.44352630  0.00D+00   0
   2      1.11473534    -0.44352630  -115.54364290    -0.00000000  0.16D-15   0

 Solving MP2-F12 equations

   1      1.11469903    -0.48286568  -115.58298228    -0.03933938 -0.37D-04   0
   2      1.11469903    -0.48362238  -115.58373898    -0.00075670 -0.95D-18   0
   3      1.11469903    -0.48362238  -115.58373898     0.00000000  0.18D-18   0

 CPU TIME FOR ITERATIVE MP2:    0.13 SEC


 MP2-F12 energy corrections:
 ===========================
 Approx.                                    Singlet             Triplet             Total
 MP2-F12/3*C(DX,FIX)                   -0.038287698651     -0.004212696918     -0.042500395569
 MP2-F12/3*C(FIX)                      -0.036088854633     -0.003930957461     -0.040019812094
 MP2-F12/3C(FIX)                       -0.036028856913     -0.004067223057     -0.040096079969

 MP2-F12 correlation energies:
 =============================
 Approx.                                    Singlet             Triplet             Ecorr            Total Energy
 MP2                                   -0.291278947372     -0.152247355287     -0.443526302659   -115.543642900989
 MP2-F12/3*C(DX,FIX)                   -0.329566646022     -0.156460052205     -0.486026698227   -115.586143296557
 MP2-F12/3*C(FIX)                      -0.327367802004     -0.156178312748     -0.483546114752   -115.583662713082
 MP2-F12/3C(FIX)                       -0.327307804284     -0.156314578344     -0.483622382628   -115.583738980958

 SCS-MP2 energies (F_SING= 1.20000  F_TRIP= 0.62222  F_PARALLEL= 0.33333):
 =========================================================================
 SCS-MP2                               -0.444266424580   -115.544383022910
 SCS-MP2-F12/3*C(DX,FIX)               -0.492832896599   -115.592949494929
 SCS-MP2-F12/3*C(FIX)                  -0.490018979226   -115.590135577556
 SCS-MP2-F12/3C(FIX)                   -0.490031769444   -115.590148367774


  Reference energy                   -115.098763025526
  F12 singles correction               -0.001353572804

 F12 singles corrections added to reference energy

  New reference energy               -115.100116598330

  F12/3C(F) singlet correction         -0.036028856913
  F12/3C(F) triplet correction         -0.004067223057
  F12/3C(F) total correction           -0.040096079969
  MP2-F12/3C(F) singlet pair energy    -0.327307804284
  MP2-F12/3C(F) triplet pair energy    -0.156314578344
  MP2-F12/3C(F) correlation energy     -0.483622382628

 !MP2-F12/3C(F) total energy         -115.583738980958


 **********************************************************************************************************************************
 DATASETS  * FILE   NREC   LENGTH (MB)   RECORD NAMES
              1      20      573.85       500      610      700      900      950      970     1000      129      960     1100   
                                          VAR    BASINP    GEOM    SYMINP    ZMAT    AOBASIS   BASIS     P2S    ABASIS      S 
                                         1400     1410     1200     1210     1080     1600     1650     1300     1700     1380   
                                           T        V       H0       H01     AOSYM     SMH    MOLCAS    ERIS     OPER     JKOP   

              2       7        4.13       700     1000      520     2100     7360     7350     7000   
                                         GEOM     BASIS   MCVARS     RHF    F12ABS    EF12   

 PROGRAMS   *        TOTAL   MP2-F12    HF-SCF       INT
 CPU TIMES  *        28.06      9.43      9.11      9.38
 REAL TIME  *       111.10 SEC
 DISK USED  *         2.15 GB
 **********************************************************************************************************************************


 PROGRAM * CCSD (Closed-shell coupled cluster)     Authors: C. Hampel, H.-J. Werner, 1991, M. Deegan, P.J. Knowles, 1992

                                  CCSD-F12 implementation by  H.-J. Werner, 2007

                   Density fitting integral evaluation by F.R. Manby, 2003,2007, G. Knizia, 2010



 Convergence thresholds:  THRVAR = 1.00D-08  THRDEN = 1.00D-06

 CCSD(T)     terms to be evaluated (factor= 1.000)


 Number of core orbitals:           2 (   2 )
 Number of closed-shell orbitals:   7 (   7 )
 Number of external orbitals:     169 ( 169 )

 Molecular orbitals read from record     2100.2  Type=RHF/CANONICAL (state 1.1)

 MP2-F12 correlation treatment (H.-J. Werner, 2006)
 ==================================================

 Using MP2-F12 with ansatz 3C(FIX)

 Using projected zeroth-order Hamiltonian (+Z)

 FOCKRIB=T FOCKRIC=T FOCKRIP=T CABSP=T CABSA=T CABSK=T CABSF=T GBC=F EBC=F DMAT=T NOFIK=T NOPAO=1 SOLVE=-1  USEPAO=0
 EXCH_A= T EXCH_B= F EXCH_C= F EXCH_P= F

 Geminal basis:    OPTFULL  GEM_TYPE=SLATER  BETA=1.0  NGEM=6

 Optimizing Gaussian exponents for each gem_beta

 Geminal optimization for beta= 1.0000
 Weight function:   m=0, omega= 1.4646

 Augmented Hessian optimization of geminal fit. Trust ratio= 0.40000
 Convergence reached after   2 iterations. Final gradient= 8.66D-16, Step= 4.23D-06, Delta= 1.28D-09

 Alpha:                 0.19532     0.81920     2.85917     9.50073    35.69989   197.79328
 Coeff:                 0.27070     0.30552     0.18297     0.10986     0.06810     0.04224


 All pairs explicitly correlated. Number of r12-pairs:           28

 Excluding core orbitals from MO domains

 AO(A)-basis ORBITAL           loaded. Number of functions:     178
 RI(R)-basis CC-PVTZ-F12/OPTRI loaded. Number of functions:     314
 DF-basis AUG-CC-PVTZ/JKFIT    loaded. Number of functions:     392

 Screening thresholds:   THRAO=  1.00D-10  THRMO=  1.00D-09  THRPROD=  1.00D-09
                         THRSW=  1.00D-05  THROV=  1.00D-12  THRAOF12= 1.00D-08

 CPU time for Fock operators                      1.70 sec

 Construction of ABS:
 Smallest eigenvalue of S          4.35E-04  (threshold= 1.00E-08)
 Ratio eigmin/eigmax               5.56E-05  (threshold= 1.00E-09)
 Smallest eigenvalue of S kept     4.35E-04  (threshold= 4.35E-04, 0 functions deleted, 314 kept)

 Construction of CABS:
 Smallest eigenvalue of S          7.26E-07  (threshold= 1.00E-08)
 Ratio eigmin/eigmax               7.26E-07  (threshold= 1.00E-09)
 Smallest eigenvalue of S kept     7.26E-07  (threshold= 7.26E-07, 0 functions deleted, 314 kept)

 CPU time for CABS singles                        0.05 sec

 CABS-singles contribution of  -0.00135357 patched into reference energy.
 New reference energy        -115.10011660

 AO(A)-basis ORBITAL           loaded. Number of functions:     178
 RI(R)-basis CC-PVTZ-F12/OPTRI loaded. Number of functions:     314
 DF-basis AUG-CC-PVTZ/MP2FIT   loaded. Number of functions:     396

 Screening thresholds:   THRAO=  1.00D-10  THRMO=  1.00D-09  THRPROD=  1.00D-09
                         THRSW=  1.00D-05  THROV=  1.00D-12  THRAOF12= 1.00D-08

 CPU time for 3-index integral evaluation         3.87 sec
 CPU time for first  half transformation          0.39 sec ( 6330.9 MFLOP/sec)
 CPU time for second half transformation          0.02 sec ( 3108.5 MFLOP/sec)
 CPU time for sorting                             0.01 sec
 CPU time for fitting                             0.02 sec (56971.3 MFLOP/sec)
 CPU time for tilde quantities                    0.04 sec (37761.3 MFLOP/sec)
 CPU time for assembly                            0.23 sec (53711.3 MFLOP/sec)
 CPU time for tranop_f12                          0.33 sec (48061.3 MFLOP/sec)
 CPU time for f12 integrals (total)               5.44 sec, Elapsed time:      5.87 sec
 CPU time for f12 matrices (total)                0.13 sec, Elapsed time:      0.17 sec

 Diagonal F12 approximation with fixed coefficients:  TSING= 0.500,  TTRIP= 0.250 (scaled by -1/beta)

 DF-MP2-F12 energy corrections:
 ==============================
 Approx.                                    Singlet             Triplet             Total
 DF-MP2-F12/3*C(DX,FIX)                -0.038287698651     -0.004212696918     -0.042500395569
 DF-MP2-F12/3*C(FIX)                   -0.036088854633     -0.003930957461     -0.040019812094
 DF-MP2-F12/3C(FIX)                    -0.036031556923     -0.004065926977     -0.040097483900

 DF-MP2-F12 correlation energies:
 ================================
 Approx.                                    Singlet             Triplet             Ecorr            Total Energy
 DF-MP2                                -0.291095637230     -0.152364259855     -0.443459897085   -115.543576495415
 DF-MP2-F12/3*C(DX,FIX)                -0.329383335880     -0.156576956773     -0.485960292653   -115.586076890983
 DF-MP2-F12/3*C(FIX)                   -0.327184491862     -0.156295217316     -0.483479709178   -115.583596307508
 DF-MP2-F12/3C(FIX)                    -0.327127194153     -0.156430186832     -0.483557380985   -115.583673979315

 SCS-DF-MP2 energies (F_SING= 1.20000  F_TRIP= 0.62222  F_PARALLEL= 0.33333):
 ============================================================================
 SCS-DF-MP2                            -0.444119193030   -115.544235791360
 SCS-DF-MP2-F12/3*C(DX,FIX)            -0.492685665048   -115.592802263378
 SCS-DF-MP2-F12/3*C(FIX)               -0.489871747676   -115.589988346006
 SCS-DF-MP2-F12/3C(FIX)                -0.489886971456   -115.590003569787
 Symmetry transformation completed.

 Number of N-1 electron functions:               7
 Number of N-2 electron functions:              28
 Number of singly external CSFs:              1183
 Number of doubly external CSFs:            700336
 Total number of CSFs:                      701520

 Length of J-op  integral file:             105.23 MB
 Length of K-op  integral file:             138.67 MB
 Length of 3-ext integral record:             0.00 MB

 Memory could be reduced to 48.01 Mwords without degradation in triples

 Integral transformation finished. Total CPU:   3.71 sec, npass=  1  Memory used:  24.86 MW

 Reference energy:                   -115.10011660

 Adding F12 terms to K(Cij), methodcc=6,  factor= 1.0

 ITER.      SQ.NORM     CORR.ENERGY   TOTAL ENERGY   ENERGY CHANGE        DEN1      VAR(S)    VAR(P)  DIIS     TIME  TIME/IT
   1      1.11762304    -0.45285920  -115.55297580    -0.00933290     0.00166831  0.15D-02  0.19D-02  1  1    14.53     5.97
   2      1.12503271    -0.45322103  -115.55333763    -0.00036183    -0.00904633  0.24D-04  0.23D-03  2  2    17.98     7.17
   3      1.12776231    -0.45339847  -115.55351506    -0.00017744    -0.00186509  0.15D-04  0.13D-04  3  3    21.42     8.47
   4      1.12870964    -0.45341635  -115.55353295    -0.00001789    -0.00060018  0.86D-06  0.12D-05  4  4    24.77     8.30
   5      1.12886525    -0.45341791  -115.55353451    -0.00000156    -0.00003791  0.23D-06  0.10D-06  5  5    28.17     8.28
   6      1.12890786    -0.45341555  -115.55353215     0.00000236    -0.00000423  0.36D-07  0.96D-08  6  6    31.59     8.31
   7      1.12891900    -0.45341468  -115.55353128     0.00000087    -0.00000299  0.40D-08  0.14D-08  6  1    34.93     8.28
   8      1.12892080    -0.45341474  -115.55353134    -0.00000006     0.00000034  0.67D-09  0.20D-09  6  3    38.34     8.30

 Norm of t1 vector:      0.05001097      S-energy:     0.00000010      T1 diagnostic:  0.00945119
                                                                       D1 diagnostic:  0.02004422

 Adding energy correction from Wij-K(Fij), methodcc=6  factor= 1.0

  CCSD correlation energy              -0.453414739000
  MP2-F12 correction (uncoupled)       -0.038545741108
  C*T doubles correction               -0.001164946821
  f12b correction                       0.007098823910


 Total CPU time for triples:     40.99 sec


 RESULTS
 =======

  Reference energy                   -115.098763025526
  F12 singles correction               -0.001353572804

 F12 singles corrections added to reference energy

  New reference energy               -115.100116598330

  F12a singlet correction              -0.035792057073
  F12a triplet correction              -0.003918630856
  F12a total correction                -0.039710687929

 F12a corrections for ansatz F12/3C(FIX) added to CCSD energy

  CCSD-F12a singlet pair energy        -0.351209704524
  CCSD-F12a triplet pair energy        -0.141915825205
  CCSD-F12a correlation energy         -0.493125426929

  Triples (T) contribution             -0.016014528903
  Total correlation energy             -0.509139955833

  CCSD-F12a total energy             -115.593242025259
  CCSD[T]-F12a energy                -115.609809677308
  CCSD-T-F12a energy                 -115.609012818205
 !CCSD(T)-F12a total energy          -115.609256554163

 F12b corrections for ansatz F12/3C(FIX) added to CCSD(T)-F12a energy

  CCSD-F12b singlet pair energy        -0.344572969689
  CCSD-F12b triplet pair energy        -0.141453736130
  CCSD-F12b correlation energy         -0.486026603019

  Triples (T) contribution             -0.016014528903
  Total correlation energy             -0.502041131923

  CCSD-F12b total energy             -115.586143201349
  CCSD[T]-F12b energy                -115.602710853398
  CCSD-T-F12b energy                 -115.601913994295
 !CCSD(T)-F12b total energy          -115.602157730253

 Timing summary (sec):

 STEP                 CPU(USER)    SYS     CPU(TOT)    WALL
 Transformation          3.77      1.30      5.07      7.94
 CCSD iterations        27.15     10.63     37.78     66.55
 Triples                40.99      1.63     42.62     43.80
 MP2-F12                 7.43      0.53      7.96      8.06
 F12b energy             2.72      0.37      3.09      4.73

 Program statistics:

 Available memory in ccsd:               499999646
 Min. memory needed in ccsd:               2228017
 Max. memory used in ccsd:                 2807120
 Max. memory used in cckext:               2027429 ( 9 integral passes)



 **********************************************************************************************************************************
 DATASETS  * FILE   NREC   LENGTH (MB)   RECORD NAMES
              1      20      709.80       500      610      700      900      950      970     1000      129      960     1100   
                                          VAR    BASINP    GEOM    SYMINP    ZMAT    AOBASIS   BASIS     P2S    ABASIS      S 
                                         1400     1410     1200     1210     1080     1600     1650     1300     1700     1380   
                                           T        V       H0       H01     AOSYM     SMH    MOLCAS    ERIS     OPER     JKOP   

              2       7        4.13       700     1000      520     2100     7360     7350     7000   
                                         GEOM     BASIS   MCVARS     RHF    F12ABS    EF12   

 PROGRAMS   *        TOTAL   CCSD(T)   MP2-F12    HF-SCF       INT
 CPU TIMES  *       110.15     82.09      9.43      9.11      9.38
 REAL TIME  *       242.33 SEC
 DISK USED  *         2.15 GB
 **********************************************************************************************************************************
 SETTING XXX            =    "MMM"
 SETTING POINT          =       126.00000000                                  

 *** ### CH3OH


 XXX       RCO          ROH          RCH1         RCH2         RCH3           ACOH           AOCH1          AOCH2          AOCH3         AHH1           AHH2           AHH3            ENERGY        POINT
 "MMM"   1.42077677   0.96013932   1.09179427   1.08442276   1.09160196   108.12930637   111.60406622   107.20034982   111.69255300   65.43364279   184.00000000   302.56635721   -115.60925655   126.0000
                                                  

 CCSD(T)-F12/cc-pVTZ-F12 energy=   -115.602157730253

     CCSD(T)-F12         MP2-F12          HF-SCF
   -115.60215773   -115.58373898   -115.09876303
 **********************************************************************************************************************************
 Molpro calculation terminated
