
 Primary working directories    : /tmpdir/job/2955577.undefined/molpro.cd3JjbiEsu
 Secondary working directories  : /tmpdir/job/2955577.undefined/molpro.cd3JjbiEsu
 Wavefunction directory         : /home/zcaposm/wfu/
 Main file repository           : /tmpdir/job/2955577.undefined/molpro.cd3JjbiEsu/

 id        : uclcc

 Nodes                         nprocs
 node-d00a-131.myriad.ucl.ac.uk    1

 Using customized tuning parameters: mindgm=1; mindgv=20; mindgc=4; mindgr=1; noblas=0; minvec=7
 default implementation of scratch files=df  


 Variables initialized (945), CPU time= 0.01 sec
 ***,Methanol Ground State Energy with CCSD(T)-F12 and cc-pVTZ-F12
 memory,500,m;
 
 geometry={angstrom
 c
 o , 1, rco
 h , 2, roh, 1, acoh
 h1, 1, rch1, 2, aoch1  3  ahh1
 h2, 1, rch2, 2, aoch2, 3, ahh2
 h3, 1, rch3, 2, aoch3, 3, ahh3
 }
 
                                                ! Specify the initial values of the internal coordinates (in Angstroms and degrees)
 
 rco= 1.42077677
 roh= 0.96513932
 rch1= 1.091717515605
 rch2= 1.08440070258
 rch3= 1.091717515605
 acoh= 108.12930637
 aoch1= 111.6522152299
 aoch2= 107.18733878260001
 aoch3= 111.6522152299
 ahh1=61.43364279
 ahh2=180.0
 ahh3=298.56635721
 
                                                                                 ! Use the cc-pVTZ-F12 basis set
 basis=cc-pVTZ-F12
 
 hf
 
                                                                                 ! Use explicitly correlated F12 methods
                                                                            ! First, MP2-F12 (useful for initial electronic energy)
 {mp2-f12}
 
                                                                        ! If desired, perform CCSD(T)-F12 for more accurate results
 {ccsd(t)-f12}
 
                                                                                 ! Output the energy
 xxx = "mmm"
 point = 14
 text ### CH3OH
 table,xxx,rco,roh,rch1,rch2,rch3,acoh,aoch1,aoch2,aoch3,ahh1,ahh2,ahh3,energy,point
 DIGITS, 0, 8, 8, 8, 8, 8, 8, 8, 8, 8,  8,  8,  8, 8, 4
 save,CH3OH_MEP_MP2_14.dat,new
 
 Commands  initialized (802), CPU time= 0.00 sec, 659 directives.
 Default parameters read. Elapsed time= 0.08 sec

 Checking input...
 Passed
1


                                         ***  PROGRAM SYSTEM MOLPRO  ***
                                       Copyright, TTI GmbH Stuttgart, 2015
                                    Version 2020.1 linked Oct  6 2020 12:04:11


 **********************************************************************************************************************************
 LABEL *   Methanol Ground State Energy with CCSD(T)-F12 and cc-pVTZ-F12                 
  64 bit serial version                                                                  DATE: 08-Oct-24          TIME: 17:11:36  
 **********************************************************************************************************************************

 SHA1:             8c27446f6450a7499e38f603e13c65f775101d37
 **********************************************************************************************************************************

 Memory per process:       500 MW
 Total memory per node:    500 MW

 GA preallocation disabled
 GA check disabled

 Variable memory set to 500.0 MW

 SETTING RCO            =         1.42077677                                  
 SETTING ROH            =         0.96513932                                  
 SETTING RCH1           =         1.09171752                                  
 SETTING RCH2           =         1.08440070                                  
 SETTING RCH3           =         1.09171752                                  
 SETTING ACOH           =       108.12930637                                  
 SETTING AOCH1          =       111.65221523                                  
 SETTING AOCH2          =       107.18733878                                  
 SETTING AOCH3          =       111.65221523                                  
 SETTING AHH1           =        61.43364279                                  
 SETTING AHH2           =       180.00000000                                  
 SETTING AHH3           =       298.56635721                                  
 SETTING BASIS          =    CC-PVTZ-F12


 Recomputing integrals since basis changed


 Using spherical harmonics

 Library entry C      S cc-pVTZ-F12          selected for orbital group  1
 Library entry C      P cc-pVTZ-F12          selected for orbital group  1
 Library entry C      D cc-pVTZ-F12          selected for orbital group  1
 Library entry C      F cc-pVTZ-F12          selected for orbital group  1
 Library entry O      S cc-pVTZ-F12          selected for orbital group  2
 Library entry O      P cc-pVTZ-F12          selected for orbital group  2
 Library entry O      D cc-pVTZ-F12          selected for orbital group  2
 Library entry O      F cc-pVTZ-F12          selected for orbital group  2
 Library entry H      S cc-pVTZ-F12          selected for orbital group  3
 Library entry H      P cc-pVTZ-F12          selected for orbital group  3
 Library entry H      D cc-pVTZ-F12          selected for orbital group  3


 PROGRAM * SEWARD (Integral evaluation for generally contracted gaussian basis sets)     Author: Roland Lindh, 1990

 Geometry written to block  1 of record 700

 Orientation using atomic masses  
 Molecule type: Asymmetric top
 Symmetry elements: X
 Rotational constants:      23.9453638     24.8035340    128.5255296 GHz  (calculated with average atomic masses)

 Point group  Cs  



 ATOMIC COORDINATES

 NR  ATOM    CHARGE       X              Y              Z

   1  C       6.00    0.000000000    0.025443932   -1.376689989
   2  O       8.00    0.000000000   -0.122834891    1.304091338
   3  H       1.00    0.000000000    1.576484560    1.966464744
   4  H1      1.00    1.684053272    0.982977265   -2.086096692
   5  H3      1.00   -1.684053272    0.982977265   -2.086096692
   6  H2      1.00    0.000000000   -1.895835632   -2.089423341

 Bond lengths in Bohr (Angstrom)

 1-2  2.684878979  1-4  2.063047110  1-5  2.063047110  1-6  2.049220337  2-3  1.823848987
     ( 1.420776770)     ( 1.091717516)     ( 1.091717516)     ( 1.084400703)     ( 0.965139320)

 Bond angles

  1-2-3  108.12930637   2-1-4  111.65221523   2-1-5  111.65221523   2-1-6  107.18733878

  4-1-5  109.43105099   4-1-6  108.39459424   5-1-6  108.39459424

 NUCLEAR CHARGE:                   18
 NUMBER OF PRIMITIVE AOS:         228
 NUMBER OF SYMMETRY AOS:          206
 NUMBER OF CONTRACTIONS:          178   (  114A'  +   64A"  )
 NUMBER OF INNER CORE ORBITALS:     0   (    0A'  +    0A"  )
 NUMBER OF OUTER CORE ORBITALS:     2   (    2A'  +    0A"  )
 NUMBER OF VALENCE ORBITALS:       12   (    9A'  +    3A"  )


 NUCLEAR REPULSION ENERGY   40.31894038

 Eigenvalues of metric

         1 0.880E-04 0.186E-03 0.310E-03 0.460E-03 0.494E-03 0.560E-03 0.617E-03 0.622E-03
         2 0.323E-03 0.570E-03 0.687E-03 0.178E-02 0.339E-02 0.496E-02 0.644E-02 0.887E-02


 Contracted 2-electron integrals neglected if value below      1.0D-11
 AO integral compression algorithm  1   Integral accuracy      1.0D-11

     331.612 MB (compressed) written to integral file ( 53.5%)


 NUMBER OF SORTED TWO-ELECTRON INTEGRALS:   64554730.     BUFFER LENGTH:  32768
 NUMBER OF SEGMENTS:   5  SEGMENT LENGTH:   15997996      RECORD LENGTH: 524288

 Memory used in sort:      16.56 MW

 SORT1 READ    77497885. AND WROTE    63554586. INTEGRALS IN    184 RECORDS. CPU TIME:     1.90 SEC, REAL TIME:   160.15 SEC
 SORT2 READ    63554586. AND WROTE    64554730. INTEGRALS IN   1265 RECORDS. CPU TIME:     1.39 SEC, REAL TIME:   381.38 SEC

 FILE SIZES:   FILE 1:   362.5 MBYTE,  FILE 4:   771.8 MBYTE,   TOTAL:   1134.3 MBYTE

 OPERATOR DM      FOR CENTER  0  COORDINATES:    0.000000    0.000000    0.000000


 **********************************************************************************************************************************
 DATASETS  * FILE   NREC   LENGTH (MB)   RECORD NAMES
              1      19      311.85       500      610      700      900      950      970     1000      129      960     1100   
                                          VAR    BASINP    GEOM    SYMINP    ZMAT    AOBASIS   BASIS     P2S    ABASIS      S 
                                         1400     1410     1200     1210     1080     1600     1650     1300     1700   
                                           T        V       H0       H01     AOSYM     SMH    MOLCAS    ERIS     OPER   

 PROGRAMS   *        TOTAL       INT
 CPU TIMES  *         6.90      6.79
 REAL TIME  *       701.94 SEC
 DISK USED  *         1.13 GB
 **********************************************************************************************************************************


 PROGRAM * RHF-SCF (CLOSED SHELL)       Authors: W. Meyer, H.-J. Werner


 NUMBER OF ELECTRONS:       9+    9-
 CONVERGENCE THRESHOLDS:    1.00E-05 (Density)    1.00E-07 (Energy)
 MAX. NUMBER OF ITERATIONS:       60
 INTERPOLATION TYPE:            DIIS
 INTERPOLATION STEPS:              2 (START)      1 (STEP)
 LEVEL SHIFTS:                  0.00 (CLOSED)  0.00 (OPEN) 



 Orbital guess generated from atomic densities. Full valence occupancy:   11   3

 Molecular orbital dump at record        2100.2

 Initial occupancy:   7   2

 ITERATION    DDIFF          GRAD             ENERGY        2-EL.EN.            DIPOLE MOMENTS         DIIS   ORB.
    1      0.000D+00      0.000D+00      -115.06206349    164.447276    0.00000    0.90990   -0.47370    0    start
    2      0.000D+00      0.668D-02      -115.09044442    161.855306    0.00000    0.49775   -0.30185    1    diag
    3      0.652D-02      0.366D-02      -115.09796582    163.124812    0.00000    0.60208   -0.39511    2    diag
    4      0.222D-02      0.722D-03      -115.09850182    162.947237    0.00000    0.59664   -0.39084    3    diag
    5      0.594D-03      0.146D-03      -115.09853682    162.958767    0.00000    0.59255   -0.39581    4    diag
    6      0.167D-03      0.274D-04      -115.09853843    162.956553    0.00000    0.59266   -0.39663    5    diag
    7      0.480D-04      0.590D-05      -115.09853851    162.956149    0.00000    0.59247   -0.39692    6    diag
    8      0.122D-04      0.156D-05      -115.09853851    162.956518    0.00000    0.59245   -0.39695    7    diag
    9      0.242D-05      0.488D-06      -115.09853851    162.956347    0.00000    0.59244   -0.39696    0    orth

 Final occupancy:   7   2

 !RHF STATE  1.1 Energy              -115.098538514948
 Nuclear energy                        40.31894038
 One-electron energy                 -236.89565233
 Two-electron energy                   81.47817343
 Virial quotient                       -1.00109747
 !RHF STATE  1.1 Dipole moment          0.00000000     0.59243963    -0.39695651
 Dipole moment /Debye                   0.00000000     1.50573271    -1.00889671

 Orbital energies:

         1.1          2.1          3.1          4.1          5.1          6.1          7.1          8.1          9.1
    -20.556810   -11.269713    -1.355779    -0.925877    -0.689801    -0.594208    -0.503981     0.054615     0.064983

         1.2          2.2          3.2          4.2
     -0.621465    -0.452018     0.073809     0.181499


 HOMO      2.2    -0.452018 =     -12.3000eV
 LUMO      8.1     0.054615 =       1.4861eV
 LUMO-HOMO         0.506632 =      13.7862eV


 **********************************************************************************************************************************
 DATASETS  * FILE   NREC   LENGTH (MB)   RECORD NAMES
              1      19      311.85       500      610      700      900      950      970     1000      129      960     1100   
                                          VAR    BASINP    GEOM    SYMINP    ZMAT    AOBASIS   BASIS     P2S    ABASIS      S 
                                         1400     1410     1200     1210     1080     1600     1650     1300     1700   
                                           T        V       H0       H01     AOSYM     SMH    MOLCAS    ERIS     OPER   

              2       4        3.18       700     1000      520     2100   
                                         GEOM     BASIS   MCVARS     RHF  

 PROGRAMS   *        TOTAL    HF-SCF       INT
 CPU TIMES  *        10.07      3.17      6.79
 REAL TIME  *       778.12 SEC
 DISK USED  *         1.13 GB
 **********************************************************************************************************************************


 PROGRAM * MP2 (Closed-shell)     Authors: C. Hampel, H.-J. Werner, 1991, M. Deegan, P.J. Knowles, 1992

                                   MP2-F12 implementation by H.-J. Werner, 2007

                   Density fitting integral evaluation by F.R. Manby, 2003,2007, G. Knizia, 2010


 Basis set AUG-CC-PVTZ/JKFIT generated.  Number of basis functions:   392 
 Basis set CC-PVTZ-F12/OPTRI generated.  Number of basis functions:   314 
 Basis set AUG-CC-PVTZ/MP2FIT generated. Number of basis functions:   396 

 Convergence thresholds:  THRVAR = 1.00D-08  THRDEN = 1.00D-06

 Number of core orbitals:           2 (   2   0 )
 Number of closed-shell orbitals:   7 (   5   2 )
 Number of external orbitals:     169 ( 107  62 )

 Molecular orbitals read from record     2100.2  Type=RHF/CANONICAL (state 1.1)

 MP2-F12 correlation treatment (H.-J. Werner, 2006)
 ==================================================

 Using MP2-F12 with ansatz 3C(FIX)

 Using projected zeroth-order Hamiltonian (+Z)

 FOCKRIB=T FOCKRIC=T FOCKRIP=T CABSP=T CABSA=T CABSK=T CABSF=T GBC=F EBC=F DMAT=T NOFIK=T NOPAO=1 SOLVE=-1  USEPAO=0
 EXCH_A= T EXCH_B= F EXCH_C= F EXCH_P= F

 Geminal basis:    OPTFULL  GEM_TYPE=SLATER  BETA=1.0  NGEM=6

 Optimizing Gaussian exponents for each gem_beta

 Geminal optimization for beta= 1.0000
 Weight function:   m=0, omega= 1.4646

 Augmented Hessian optimization of geminal fit. Trust ratio= 0.40000
 Convergence reached after   2 iterations. Final gradient= 8.66D-16, Step= 4.23D-06, Delta= 1.28D-09

 Alpha:                 0.19532     0.81920     2.85917     9.50073    35.69989   197.79328
 Coeff:                 0.27070     0.30552     0.18297     0.10986     0.06810     0.04224


 Symmetry turned off. Reference energy:       -115.098538514948

 All pairs explicitly correlated. Number of r12-pairs:           28

 Excluding core orbitals from MO domains

 AO(A)-basis ORBITAL           loaded. Number of functions:     178
 RI(R)-basis CC-PVTZ-F12/OPTRI loaded. Number of functions:     314
 DF-basis AUG-CC-PVTZ/JKFIT    loaded. Number of functions:     392

 Screening thresholds:   THRAO=  1.00D-10  THRMO=  1.00D-09  THRPROD=  1.00D-09
                         THRSW=  1.00D-05  THROV=  1.00D-12  THRAOF12= 1.00D-08

 CPU time for Fock operators                      5.39 sec

 Construction of ABS:
 Smallest eigenvalue of S          4.37E-04  (threshold= 1.00E-08)
 Ratio eigmin/eigmax               5.59E-05  (threshold= 1.00E-09)
 Smallest eigenvalue of S kept     4.37E-04  (threshold= 4.37E-04, 0 functions deleted, 314 kept)

 Construction of CABS:
 Smallest eigenvalue of S          7.28E-07  (threshold= 1.00E-08)
 Ratio eigmin/eigmax               7.28E-07  (threshold= 1.00E-09)
 Smallest eigenvalue of S kept     7.28E-07  (threshold= 7.28E-07, 0 functions deleted, 314 kept)

 CPU time for CABS singles                        0.04 sec

 CABS-singles contribution of  -0.00134898 patched into reference energy.
 New reference energy        -115.09988750

 AO(A)-basis ORBITAL           loaded. Number of functions:     178
 RI(R)-basis CC-PVTZ-F12/OPTRI loaded. Number of functions:     314
 DF-basis AUG-CC-PVTZ/MP2FIT   loaded. Number of functions:     396

 Screening thresholds:   THRAO=  1.00D-10  THRMO=  1.00D-09  THRPROD=  1.00D-09
                         THRSW=  1.00D-05  THROV=  1.00D-12  THRAOF12= 1.00D-08

 CPU time for 3-index integral evaluation         3.36 sec
 CPU time for first  half transformation          0.24 sec (10287.7 MFLOP/sec)
 CPU time for fitting                             0.02 sec (56971.3 MFLOP/sec)
 CPU time for tilde quantities                    0.03 sec (50348.4 MFLOP/sec)
 CPU time for assembly                            0.21 sec (58826.6 MFLOP/sec)
 CPU time for tranop_f12                          0.26 sec (61000.9 MFLOP/sec)
 CPU time for f12 integrals (total)               7.05 sec, Elapsed time:      7.40 sec
 CPU time for f12 matrices (total)                0.10 sec, Elapsed time:      0.14 sec

 Diagonal F12 approximation with fixed coefficients:  TSING= 0.500,  TTRIP= 0.250 (scaled by -1/beta)

 DF-MP2-F12 energy corrections:
 ==============================
 Approx.                                    Singlet             Triplet             Total
 DF-MP2-F12/3*C(DX,FIX)                -0.038273734648     -0.004210243414     -0.042483978061
 DF-MP2-F12/3*C(FIX)                   -0.036078802635     -0.003929313085     -0.040008115719
 DF-MP2-F12/3C(FIX)                    -0.036021694130     -0.004064307940     -0.040086002070

 DF-MP2-F12 correlation energies:
 ================================
 Approx.                                    Singlet             Triplet             Ecorr            Total Energy
 DF-MP2                                -0.291234087624     -0.152442338527     -0.443676426152   -115.543563921382
 DF-MP2-F12/3*C(DX,FIX)                -0.329507822272     -0.156652581941     -0.486160404213   -115.586047899444
 DF-MP2-F12/3*C(FIX)                   -0.327312890259     -0.156371651612     -0.483684541871   -115.583572037102
 DF-MP2-F12/3C(FIX)                    -0.327255781754     -0.156506646467     -0.483762428222   -115.583649923453

 SCS-DF-MP2 energies (F_SING= 1.20000  F_TRIP= 0.62222  F_PARALLEL= 0.33333):
 ============================================================================
 SCS-DF-MP2                            -0.444333915788   -115.544221411019
 SCS-DF-MP2-F12/3*C(DX,FIX)            -0.492882104378   -115.592769599609
 SCS-DF-MP2-F12/3*C(FIX)               -0.490073384869   -115.589960880100
 SCS-DF-MP2-F12/3C(FIX)                -0.490088851463   -115.589976346693

 Symmetry restored.
 Symmetry transformation completed.

 Number of N-1 electron functions:               7
 Number of N-2 electron functions:              28
 Number of singly external CSFs:               659
 Number of doubly external CSFs:            355020
 Total number of CSFs:                      355680

 Length of J-op  integral file:             103.49 MB
 Length of K-op  integral file:             127.95 MB

 Integral transformation finished. Total CPU:   0.47 sec, npass=  1  Memory used:   0.67 MW

 ITER.      SQ.NORM     CORR.ENERGY   TOTAL ENERGY   ENERGY CHANGE     VAR   MIC
   1      1.00000000    -0.44374287  -115.54363037    -0.44374287  0.00D+00   0
   2      1.11492487    -0.44374287  -115.54363037     0.00000000  0.43D-18   0

 Solving MP2-F12 equations

   1      1.11488847    -0.48307104  -115.58295854    -0.03932817 -0.37D-04   0
   2      1.11488847    -0.48382746  -115.58371495    -0.00075641 -0.80D-18   0
   3      1.11488847    -0.48382746  -115.58371495     0.00000000 -0.54D-19   0

 CPU TIME FOR ITERATIVE MP2:    0.03 SEC


 MP2-F12 energy corrections:
 ===========================
 Approx.                                    Singlet             Triplet             Total
 MP2-F12/3*C(DX,FIX)                   -0.038273734648     -0.004210243414     -0.042483978061
 MP2-F12/3*C(FIX)                      -0.036078802635     -0.003929313085     -0.040008115719
 MP2-F12/3C(FIX)                       -0.036018992747     -0.004065593659     -0.040084586406

 MP2-F12 correlation energies:
 =============================
 Approx.                                    Singlet             Triplet             Ecorr            Total Energy
 MP2                                   -0.291417400687     -0.152325469584     -0.443742870271   -115.543630365502
 MP2-F12/3*C(DX,FIX)                   -0.329691135334     -0.156535712998     -0.486226848332   -115.586114343563
 MP2-F12/3*C(FIX)                      -0.327496203321     -0.156254782669     -0.483750985990   -115.583638481221
 MP2-F12/3C(FIX)                       -0.327436393434     -0.156391063243     -0.483827456677   -115.583714951908

 SCS-MP2 energies (F_SING= 1.20000  F_TRIP= 0.62222  F_PARALLEL= 0.33333):
 =========================================================================
 SCS-MP2                               -0.444481173010   -115.544368668241
 SCS-MP2-F12/3*C(DX,FIX)               -0.493029361600   -115.592916856831
 SCS-MP2-F12/3*C(FIX)                  -0.490220642091   -115.590108137321
 SCS-MP2-F12/3C(FIX)                   -0.490233667028   -115.590121162258


  Reference energy                   -115.098538514948
  F12 singles correction               -0.001348980283

 F12 singles corrections added to reference energy

  New reference energy               -115.099887495231

  F12/3C(F) singlet correction         -0.036018992747
  F12/3C(F) triplet correction         -0.004065593659
  F12/3C(F) total correction           -0.040084586406
  MP2-F12/3C(F) singlet pair energy    -0.327436393434
  MP2-F12/3C(F) triplet pair energy    -0.156391063243
  MP2-F12/3C(F) correlation energy     -0.483827456677

 !MP2-F12/3C(F) total energy         -115.583714951908


 **********************************************************************************************************************************
 DATASETS  * FILE   NREC   LENGTH (MB)   RECORD NAMES
              1      20      317.59       500      610      700      900      950      970     1000      129      960     1100   
                                          VAR    BASINP    GEOM    SYMINP    ZMAT    AOBASIS   BASIS     P2S    ABASIS      S 
                                         1400     1410     1200     1210     1080     1600     1650     1300     1700     1380   
                                           T        V       H0       H01     AOSYM     SMH    MOLCAS    ERIS     OPER     JKOP   

              2       7        3.55       700     1000      520     2100     7360     7350     7000   
                                         GEOM     BASIS   MCVARS     RHF    F12ABS    EF12   

 PROGRAMS   *        TOTAL   MP2-F12    HF-SCF       INT
 CPU TIMES  *        23.38     13.30      3.17      6.79
 REAL TIME  *       796.59 SEC
 DISK USED  *         1.13 GB
 **********************************************************************************************************************************


 PROGRAM * CCSD (Closed-shell coupled cluster)     Authors: C. Hampel, H.-J. Werner, 1991, M. Deegan, P.J. Knowles, 1992

                                  CCSD-F12 implementation by  H.-J. Werner, 2007

                   Density fitting integral evaluation by F.R. Manby, 2003,2007, G. Knizia, 2010



 Convergence thresholds:  THRVAR = 1.00D-08  THRDEN = 1.00D-06

 CCSD(T)     terms to be evaluated (factor= 1.000)


 Number of core orbitals:           2 (   2   0 )
 Number of closed-shell orbitals:   7 (   5   2 )
 Number of external orbitals:     169 ( 107  62 )

 Molecular orbitals read from record     2100.2  Type=RHF/CANONICAL (state 1.1)

 MP2-F12 correlation treatment (H.-J. Werner, 2006)
 ==================================================

 Using MP2-F12 with ansatz 3C(FIX)

 Using projected zeroth-order Hamiltonian (+Z)

 FOCKRIB=T FOCKRIC=T FOCKRIP=T CABSP=T CABSA=T CABSK=T CABSF=T GBC=F EBC=F DMAT=T NOFIK=T NOPAO=1 SOLVE=-1  USEPAO=0
 EXCH_A= T EXCH_B= F EXCH_C= F EXCH_P= F

 Geminal basis:    OPTFULL  GEM_TYPE=SLATER  BETA=1.0  NGEM=6

 Optimizing Gaussian exponents for each gem_beta

 Geminal optimization for beta= 1.0000
 Weight function:   m=0, omega= 1.4646

 Augmented Hessian optimization of geminal fit. Trust ratio= 0.40000
 Convergence reached after   2 iterations. Final gradient= 8.66D-16, Step= 4.23D-06, Delta= 1.28D-09

 Alpha:                 0.19532     0.81920     2.85917     9.50073    35.69989   197.79328
 Coeff:                 0.27070     0.30552     0.18297     0.10986     0.06810     0.04224


 Symmetry turned off. Reference energy:       -115.098538514948

 All pairs explicitly correlated. Number of r12-pairs:           28

 Excluding core orbitals from MO domains

 AO(A)-basis ORBITAL           loaded. Number of functions:     178
 RI(R)-basis CC-PVTZ-F12/OPTRI loaded. Number of functions:     314
 DF-basis AUG-CC-PVTZ/JKFIT    loaded. Number of functions:     392

 Screening thresholds:   THRAO=  1.00D-10  THRMO=  1.00D-09  THRPROD=  1.00D-09
                         THRSW=  1.00D-05  THROV=  1.00D-12  THRAOF12= 1.00D-08

 CPU time for Fock operators                      5.41 sec

 Construction of ABS:
 Smallest eigenvalue of S          4.37E-04  (threshold= 1.00E-08)
 Ratio eigmin/eigmax               5.59E-05  (threshold= 1.00E-09)
 Smallest eigenvalue of S kept     4.37E-04  (threshold= 4.37E-04, 0 functions deleted, 314 kept)

 Construction of CABS:
 Smallest eigenvalue of S          7.28E-07  (threshold= 1.00E-08)
 Ratio eigmin/eigmax               7.28E-07  (threshold= 1.00E-09)
 Smallest eigenvalue of S kept     7.28E-07  (threshold= 7.28E-07, 0 functions deleted, 314 kept)

 CPU time for CABS singles                        0.04 sec

 CABS-singles contribution of  -0.00134898 patched into reference energy.
 New reference energy        -115.09988750

 AO(A)-basis ORBITAL           loaded. Number of functions:     178
 RI(R)-basis CC-PVTZ-F12/OPTRI loaded. Number of functions:     314
 DF-basis AUG-CC-PVTZ/MP2FIT   loaded. Number of functions:     396

 Screening thresholds:   THRAO=  1.00D-10  THRMO=  1.00D-09  THRPROD=  1.00D-09
                         THRSW=  1.00D-05  THROV=  1.00D-12  THRAOF12= 1.00D-08

 CPU time for 3-index integral evaluation         3.38 sec
 CPU time for first  half transformation          0.26 sec ( 9496.4 MFLOP/sec)
 CPU time for sorting                             0.02 sec
 CPU time for fitting                             0.02 sec (56971.3 MFLOP/sec)
 CPU time for tilde quantities                    0.01 sec (******* MFLOP/sec)
 CPU time for assembly                            0.20 sec (61768.0 MFLOP/sec)
 CPU time for tranop_f12                          0.29 sec (54690.4 MFLOP/sec)
 CPU time for f12 integrals (total)               7.13 sec, Elapsed time:      7.50 sec
 CPU time for f12 matrices (total)                0.12 sec, Elapsed time:      0.14 sec

 Diagonal F12 approximation with fixed coefficients:  TSING= 0.500,  TTRIP= 0.250 (scaled by -1/beta)

 DF-MP2-F12 energy corrections:
 ==============================
 Approx.                                    Singlet             Triplet             Total
 DF-MP2-F12/3*C(DX,FIX)                -0.038273734648     -0.004210243414     -0.042483978061
 DF-MP2-F12/3*C(FIX)                   -0.036078802635     -0.003929313085     -0.040008115719
 DF-MP2-F12/3C(FIX)                    -0.036021694130     -0.004064307940     -0.040086002070

 DF-MP2-F12 correlation energies:
 ================================
 Approx.                                    Singlet             Triplet             Ecorr            Total Energy
 DF-MP2                                -0.291234087624     -0.152442338527     -0.443676426152   -115.543563921382
 DF-MP2-F12/3*C(DX,FIX)                -0.329507822272     -0.156652581941     -0.486160404213   -115.586047899444
 DF-MP2-F12/3*C(FIX)                   -0.327312890259     -0.156371651612     -0.483684541871   -115.583572037102
 DF-MP2-F12/3C(FIX)                    -0.327255781754     -0.156506646467     -0.483762428222   -115.583649923453

 SCS-DF-MP2 energies (F_SING= 1.20000  F_TRIP= 0.62222  F_PARALLEL= 0.33333):
 ============================================================================
 SCS-DF-MP2                            -0.444333915788   -115.544221411019
 SCS-DF-MP2-F12/3*C(DX,FIX)            -0.492882104378   -115.592769599609
 SCS-DF-MP2-F12/3*C(FIX)               -0.490073384869   -115.589960880100
 SCS-DF-MP2-F12/3C(FIX)                -0.490088851463   -115.589976346693

 Symmetry restored.
 Symmetry transformation completed.

 Number of N-1 electron functions:               7
 Number of N-2 electron functions:              28
 Number of singly external CSFs:               659
 Number of doubly external CSFs:            355020
 Total number of CSFs:                      355680

 Length of J-op  integral file:             103.62 MB
 Length of K-op  integral file:             127.95 MB
 Length of 3-ext integral record:             0.00 MB

 Memory could be reduced to 24.20 Mwords without degradation in triples

 Integral transformation finished. Total CPU:   1.22 sec, npass=  1  Memory used:   7.45 MW

 Reference energy:                   -115.09988750

 Adding F12 terms to K(Cij), methodcc=6,  factor= 1.0

 ITER.      SQ.NORM     CORR.ENERGY   TOTAL ENERGY   ENERGY CHANGE        DEN1      VAR(S)    VAR(P)  DIIS     TIME  TIME/IT
   1      1.11778325    -0.45304411  -115.55293161    -0.00930124     0.00173187  0.15D-02  0.19D-02  1  1    14.83     1.18
   2      1.12521866    -0.45340710  -115.55329460    -0.00036299    -0.00907048  0.24D-04  0.23D-03  2  2    15.68     1.08
   3      1.12796265    -0.45358578  -115.55347327    -0.00017867    -0.00187192  0.15D-04  0.13D-04  3  3    16.54     1.03
   4      1.12891673    -0.45360393  -115.55349142    -0.00001815    -0.00060339  0.87D-06  0.12D-05  4  4    17.41     1.01
   5      1.12907370    -0.45360550  -115.55349300    -0.00000157    -0.00003821  0.24D-06  0.10D-06  5  5    18.26     1.00
   6      1.12911677    -0.45360314  -115.55349063     0.00000237    -0.00000429  0.36D-07  0.97D-08  6  6    19.09     0.99
   7      1.12912806    -0.45360226  -115.55348975     0.00000088    -0.00000301  0.40D-08  0.14D-08  6  1    19.94     0.99
   8      1.12912990    -0.45360232  -115.55348981    -0.00000006     0.00000034  0.69D-09  0.21D-09  6  3    20.80     0.98

 Norm of t1 vector:      0.05015413      S-energy:    -0.00000037      T1 diagnostic:  0.00947824
                                                                       D1 diagnostic:  0.02011963

 Adding energy correction from Wij-K(Fij), methodcc=6  factor= 1.0

  CCSD correlation energy              -0.453602319008
  MP2-F12 correction (uncoupled)       -0.038533671533
  C*T doubles correction               -0.001164949704
  f12b correction                       0.007100076302


 Total CPU time for triples:     11.65 sec


 RESULTS
 =======

  Reference energy                   -115.098538514948
  F12 singles correction               -0.001348980283

 F12 singles corrections added to reference energy

  New reference energy               -115.099887495231

  F12a singlet correction              -0.035781657285
  F12a triplet correction              -0.003916963952
  F12a total correction                -0.039698621237

 F12a corrections for ansatz F12/3C(FIX) added to CCSD energy

  CCSD-F12a singlet pair energy        -0.351362415529
  CCSD-F12a triplet pair energy        -0.141938152188
  CCSD-F12a correlation energy         -0.493300940245

  Triples (T) contribution             -0.016043393255
  Total correlation energy             -0.509344333500

  CCSD-F12a total energy             -115.593188435476
  CCSD[T]-F12a energy                -115.609787158079
  CCSD-T-F12a energy                 -115.608987081922
 !CCSD(T)-F12a total energy          -115.609231828731

 F12b corrections for ansatz F12/3C(FIX) added to CCSD(T)-F12a energy

  CCSD-F12b singlet pair energy        -0.344724307958
  CCSD-F12b triplet pair energy        -0.141476183457
  CCSD-F12b correlation energy         -0.486200863943

  Triples (T) contribution             -0.016043393255
  Total correlation energy             -0.502244257197

  CCSD-F12b total energy             -115.586088359173
  CCSD[T]-F12b energy                -115.602687081777
  CCSD-T-F12b energy                 -115.601887005620
 !CCSD(T)-F12b total energy          -115.602131752428

 Timing summary (sec):

 STEP                 CPU(USER)    SYS     CPU(TOT)    WALL
 Transformation          1.23      0.27      1.50      1.50
 CCSD iterations         6.79      0.75      7.54      7.87
 Triples                11.65      0.46     12.11     12.13
 MP2-F12                12.78      0.54     13.32     13.48
 F12b energy             0.67      0.06      0.73      0.74

 Program statistics:

 Available memory in ccsd:               499999650
 Min. memory needed in ccsd:               1149135
 Max. memory used in ccsd:                 1443104
 Max. memory used in cckext:               1888566 ( 9 integral passes)



 **********************************************************************************************************************************
 DATASETS  * FILE   NREC   LENGTH (MB)   RECORD NAMES
              1      20      386.16       500      610      700      900      950      970     1000      129      960     1100   
                                          VAR    BASINP    GEOM    SYMINP    ZMAT    AOBASIS   BASIS     P2S    ABASIS      S 
                                         1400     1410     1200     1210     1080     1600     1650     1300     1700     1380   
                                           T        V       H0       H01     AOSYM     SMH    MOLCAS    ERIS     OPER     JKOP   

              2       7        3.55       700     1000      520     2100     7360     7350     7000   
                                         GEOM     BASIS   MCVARS     RHF    F12ABS    EF12   

 PROGRAMS   *        TOTAL   CCSD(T)   MP2-F12    HF-SCF       INT
 CPU TIMES  *        56.53     33.15     13.30      3.17      6.79
 REAL TIME  *       832.41 SEC
 DISK USED  *         1.13 GB
 **********************************************************************************************************************************
 SETTING XXX            =    "MMM"
 SETTING POINT          =        14.00000000                                  

 *** ### CH3OH


 XXX       RCO          ROH          RCH1         RCH2         RCH3           ACOH           AOCH1          AOCH2          AOCH3         AHH1           AHH2           AHH3            ENERGY       POINT
 "MMM"   1.42077677   0.96513932   1.09171752   1.08440070   1.09171752   108.12930637   111.65221523   107.18733878   111.65221523   61.43364279   180.00000000   298.56635721   -115.60923183   14.0000
                                                  

 CCSD(T)-F12/cc-pVTZ-F12 energy=   -115.602131752428

     CCSD(T)-F12         MP2-F12          HF-SCF
   -115.60213175   -115.58371495   -115.09853851
 **********************************************************************************************************************************
 Molpro calculation terminated
