
 Primary working directories    : /tmpdir/job/2955672.undefined/molpro.7aFtZHy5KK
 Secondary working directories  : /tmpdir/job/2955672.undefined/molpro.7aFtZHy5KK
 Wavefunction directory         : /home/zcaposm/wfu/
 Main file repository           : /tmpdir/job/2955672.undefined/molpro.7aFtZHy5KK/

 id        : uclcc

 Nodes                         nprocs
 node-d00a-016.myriad.ucl.ac.uk    1

 Using customized tuning parameters: mindgm=1; mindgv=20; mindgc=4; mindgr=1; noblas=0; minvec=7
 default implementation of scratch files=df  


 Variables initialized (945), CPU time= 0.00 sec
 ***,Methanol Ground State Energy with CCSD(T)-F12 and cc-pVTZ-F12
 memory,500,m;
 
 geometry={angstrom
 c
 o , 1, rco
 h , 2, roh, 1, acoh
 h1, 1, rch1, 2, aoch1  3  ahh1
 h2, 1, rch2, 2, aoch2, 3, ahh2
 h3, 1, rch3, 2, aoch3, 3, ahh3
 }
 
                                                ! Specify the initial values of the internal coordinates (in Angstroms and degrees)
 
 rco= 1.42077677
 roh= 0.96013932
 rch1= 1.091717515605
 rch2= 1.08440070258
 rch3= 1.091717515605
 acoh= 108.12930637
 aoch1= 111.6522152299
 aoch2= 107.18733878260001
 aoch3= 111.6522152299
 ahh1=61.197940529604494
 ahh2=180.11785113019775
 ahh3=298.68420834019776
 
                                                                                 ! Use the cc-pVTZ-F12 basis set
 basis=cc-pVTZ-F12
 
 hf
 
                                                                                 ! Use explicitly correlated F12 methods
                                                                            ! First, MP2-F12 (useful for initial electronic energy)
 {mp2-f12}
 
                                                                        ! If desired, perform CCSD(T)-F12 for more accurate results
 {ccsd(t)-f12}
 
                                                                                 ! Output the energy
 xxx = "mmm"
 point = 101
 text ### CH3OH
 table,xxx,rco,roh,rch1,rch2,rch3,acoh,aoch1,aoch2,aoch3,ahh1,ahh2,ahh3,energy,point
 DIGITS, 0, 8, 8, 8, 8, 8, 8, 8, 8, 8,  8,  8,  8, 8, 4
 save,CH3OH_MEP_MP2_101.dat,new
 
 Commands  initialized (802), CPU time= 0.01 sec, 659 directives.
 Default parameters read. Elapsed time= 0.11 sec

 Checking input...
 Passed
1


                                         ***  PROGRAM SYSTEM MOLPRO  ***
                                       Copyright, TTI GmbH Stuttgart, 2015
                                    Version 2020.1 linked Oct  6 2020 12:04:11


 **********************************************************************************************************************************
 LABEL *   Methanol Ground State Energy with CCSD(T)-F12 and cc-pVTZ-F12                 
  64 bit serial version                                                                  DATE: 08-Oct-24          TIME: 17:30:42  
 **********************************************************************************************************************************

 SHA1:             8c27446f6450a7499e38f603e13c65f775101d37
 **********************************************************************************************************************************

 Memory per process:       500 MW
 Total memory per node:    500 MW

 GA preallocation disabled
 GA check disabled

 Variable memory set to 500.0 MW

 SETTING RCO            =         1.42077677                                  
 SETTING ROH            =         0.96013932                                  
 SETTING RCH1           =         1.09171752                                  
 SETTING RCH2           =         1.08440070                                  
 SETTING RCH3           =         1.09171752                                  
 SETTING ACOH           =       108.12930637                                  
 SETTING AOCH1          =       111.65221523                                  
 SETTING AOCH2          =       107.18733878                                  
 SETTING AOCH3          =       111.65221523                                  
 SETTING AHH1           =        61.19794053                                  
 SETTING AHH2           =       180.11785113                                  
 SETTING AHH3           =       298.68420834                                  
 SETTING BASIS          =    CC-PVTZ-F12


 Recomputing integrals since basis changed


 Using spherical harmonics

 Library entry C      S cc-pVTZ-F12          selected for orbital group  1
 Library entry C      P cc-pVTZ-F12          selected for orbital group  1
 Library entry C      D cc-pVTZ-F12          selected for orbital group  1
 Library entry C      F cc-pVTZ-F12          selected for orbital group  1
 Library entry O      S cc-pVTZ-F12          selected for orbital group  2
 Library entry O      P cc-pVTZ-F12          selected for orbital group  2
 Library entry O      D cc-pVTZ-F12          selected for orbital group  2
 Library entry O      F cc-pVTZ-F12          selected for orbital group  2
 Library entry H      S cc-pVTZ-F12          selected for orbital group  3
 Library entry H      P cc-pVTZ-F12          selected for orbital group  3
 Library entry H      D cc-pVTZ-F12          selected for orbital group  3


 PROGRAM * SEWARD (Integral evaluation for generally contracted gaussian basis sets)     Author: Roland Lindh, 1990

 Geometry written to block  1 of record 700

 Orientation using atomic masses  
 Molecule type: Asymmetric top
 Rotational constants:      23.9527568     24.8155585    128.7693183 GHz  (calculated with average atomic masses)

 Point group  C1  



 ATOMIC COORDINATES

 NR  ATOM    CHARGE       X              Y              Z

   1  C       6.00    0.000364745    0.024362414   -1.376618709
   2  O       8.00    0.000457402   -0.121903626    1.304273190
   3  H       1.00   -0.007210575    1.569089467    1.961945005
   4  H1      1.00    1.676470332    0.995746513   -2.086017307
   5  H2      1.00    0.005045012   -1.897446085   -2.087909209
   6  H3      1.00   -1.685911730    0.977319031   -2.086906476

 Bond lengths in Bohr (Angstrom)

 1-2  2.684878979  1-4  2.063047110  1-5  2.049220337  1-6  2.063047110  2-3  1.814400356
     ( 1.420776770)     ( 1.091717516)     ( 1.084400703)     ( 1.091717516)     ( 0.960139320)

 Bond angles

  1-2-3  108.12930637   2-1-4  111.65221523   2-1-5  107.18733878   2-1-6  111.65221523

  4-1-5  108.68491175   4-1-6  109.15871196   5-1-6  108.39459424

 NUCLEAR CHARGE:                   18
 NUMBER OF PRIMITIVE AOS:         228
 NUMBER OF SYMMETRY AOS:          206
 NUMBER OF CONTRACTIONS:          178   (  178A   )
 NUMBER OF INNER CORE ORBITALS:     0   (    0A   )
 NUMBER OF OUTER CORE ORBITALS:     2   (    2A   )
 NUMBER OF VALENCE ORBITALS:       12   (   12A   )


 NUCLEAR REPULSION ENERGY   40.34569212

 Eigenvalues of metric

         1 0.879E-04 0.183E-03 0.309E-03 0.323E-03 0.460E-03 0.493E-03 0.560E-03 0.570E-03


 Contracted 2-electron integrals neglected if value below      1.0D-11
 AO integral compression algorithm  1   Integral accuracy      1.0D-11

     600.048 MB (compressed) written to integral file ( 50.3%)


 NUMBER OF SORTED TWO-ELECTRON INTEGRALS:  126906346.     BUFFER LENGTH:  32768
 NUMBER OF SEGMENTS:   8  SEGMENT LENGTH:   15999503      RECORD LENGTH: 524288

 Memory used in sort:      16.56 MW

 SORT1 READ   149034713. AND WROTE   124644932. INTEGRALS IN    360 RECORDS. CPU TIME:     1.91 SEC, REAL TIME:    26.76 SEC
 SORT2 READ   124644932. AND WROTE   126906346. INTEGRALS IN   2289 RECORDS. CPU TIME:     2.05 SEC, REAL TIME:    34.03 SEC

 FILE SIZES:   FILE 1:   631.3 MBYTE,  FILE 4:  1510.0 MBYTE,   TOTAL:   2141.2 MBYTE

 OPERATOR DM      FOR CENTER  0  COORDINATES:    0.000000    0.000000    0.000000


 **********************************************************************************************************************************
 DATASETS  * FILE   NREC   LENGTH (MB)   RECORD NAMES
              1      19      554.39       500      610      700      900      950      970     1000      129      960     1100   
                                          VAR    BASINP    GEOM    SYMINP    ZMAT    AOBASIS   BASIS     P2S    ABASIS      S 
                                         1400     1410     1200     1210     1080     1600     1650     1300     1700   
                                           T        V       H0       H01     AOSYM     SMH    MOLCAS    ERIS     OPER   

 PROGRAMS   *        TOTAL       INT
 CPU TIMES  *         8.94      8.80
 REAL TIME  *        76.29 SEC
 DISK USED  *         2.14 GB
 **********************************************************************************************************************************


 PROGRAM * RHF-SCF (CLOSED SHELL)       Authors: W. Meyer, H.-J. Werner


 NUMBER OF ELECTRONS:       9+    9-    SPACE SYMMETRY=1    SPIN SYMMETRY: Singlet 
 CONVERGENCE THRESHOLDS:    1.00E-05 (Density)    1.00E-07 (Energy)
 MAX. NUMBER OF ITERATIONS:       60
 INTERPOLATION TYPE:            DIIS
 INTERPOLATION STEPS:              2 (START)      1 (STEP)
 LEVEL SHIFTS:                  0.00 (CLOSED)  0.00 (OPEN) 



 Orbital guess generated from atomic densities. Full valence occupancy:   14

 Molecular orbital dump at record        2100.2

 Initial occupancy:   9

 ITERATION    DDIFF          GRAD             ENERGY        2-EL.EN.            DIPOLE MOMENTS         DIIS   ORB.
    1      0.000D+00      0.000D+00      -115.06237552    164.484261   -0.00457    0.90517   -0.47816    0    start
    2      0.000D+00      0.506D-02      -115.09073104    161.902177   -0.00252    0.49697   -0.30373    1    diag
    3      0.480D-02      0.277D-02      -115.09821777    163.165505   -0.00296    0.60031   -0.39700    2    diag
    4      0.163D-02      0.546D-03      -115.09875025    162.988894   -0.00292    0.59517   -0.39245    3    diag
    5      0.436D-03      0.110D-03      -115.09878467    163.000368   -0.00289    0.59117   -0.39727    4    diag
    6      0.122D-03      0.205D-04      -115.09878623    162.998153   -0.00289    0.59131   -0.39806    5    diag
    7      0.350D-04      0.434D-05      -115.09878630    162.997765   -0.00289    0.59113   -0.39833    6    diag
    8      0.877D-05      0.114D-05      -115.09878631    162.998114   -0.00289    0.59112   -0.39834    0    orth

 Final occupancy:   9

 !RHF STATE  1.1 Energy              -115.098786306963
 Nuclear energy                        40.34569212
 One-electron energy                 -236.94353523
 Two-electron energy                   81.49905680
 Virial quotient                       -1.00101563
 !RHF STATE  1.1 Dipole moment         -0.00288927     0.59112462    -0.39834420
 Dipole moment /Debye                  -0.00734330     1.50239051    -1.01242365

 Orbital energies:

         1.1          2.1          3.1          4.1          5.1          6.1          7.1          8.1          9.1         10.1
    -20.556341   -11.269779    -1.356932    -0.926356    -0.691021    -0.621227    -0.594414    -0.504674    -0.451969     0.054610

        11.1
      0.065017


 HOMO      9.1    -0.451969 =     -12.2987eV
 LUMO     10.1     0.054610 =       1.4860eV
 LUMO-HOMO         0.506579 =      13.7847eV


 **********************************************************************************************************************************
 DATASETS  * FILE   NREC   LENGTH (MB)   RECORD NAMES
              1      19      554.39       500      610      700      900      950      970     1000      129      960     1100   
                                          VAR    BASINP    GEOM    SYMINP    ZMAT    AOBASIS   BASIS     P2S    ABASIS      S 
                                         1400     1410     1200     1210     1080     1600     1650     1300     1700   
                                           T        V       H0       H01     AOSYM     SMH    MOLCAS    ERIS     OPER   

              2       4        3.48       700     1000      520     2100   
                                         GEOM     BASIS   MCVARS     RHF  

 PROGRAMS   *        TOTAL    HF-SCF       INT
 CPU TIMES  *        16.89      7.95      8.80
 REAL TIME  *        87.65 SEC
 DISK USED  *         2.14 GB
 **********************************************************************************************************************************


 PROGRAM * MP2 (Closed-shell)     Authors: C. Hampel, H.-J. Werner, 1991, M. Deegan, P.J. Knowles, 1992

                                   MP2-F12 implementation by H.-J. Werner, 2007

                   Density fitting integral evaluation by F.R. Manby, 2003,2007, G. Knizia, 2010


 Basis set AUG-CC-PVTZ/JKFIT generated.  Number of basis functions:   392 
 Basis set CC-PVTZ-F12/OPTRI generated.  Number of basis functions:   314 
 Basis set AUG-CC-PVTZ/MP2FIT generated. Number of basis functions:   396 

 Convergence thresholds:  THRVAR = 1.00D-08  THRDEN = 1.00D-06

 Number of core orbitals:           2 (   2 )
 Number of closed-shell orbitals:   7 (   7 )
 Number of external orbitals:     169 ( 169 )

 Molecular orbitals read from record     2100.2  Type=RHF/CANONICAL (state 1.1)

 MP2-F12 correlation treatment (H.-J. Werner, 2006)
 ==================================================

 Using MP2-F12 with ansatz 3C(FIX)

 Using projected zeroth-order Hamiltonian (+Z)

 FOCKRIB=T FOCKRIC=T FOCKRIP=T CABSP=T CABSA=T CABSK=T CABSF=T GBC=F EBC=F DMAT=T NOFIK=T NOPAO=1 SOLVE=-1  USEPAO=0
 EXCH_A= T EXCH_B= F EXCH_C= F EXCH_P= F

 Geminal basis:    OPTFULL  GEM_TYPE=SLATER  BETA=1.0  NGEM=6

 Optimizing Gaussian exponents for each gem_beta

 Geminal optimization for beta= 1.0000
 Weight function:   m=0, omega= 1.4646

 Augmented Hessian optimization of geminal fit. Trust ratio= 0.40000
 Convergence reached after   2 iterations. Final gradient= 8.66D-16, Step= 4.23D-06, Delta= 1.28D-09

 Alpha:                 0.19532     0.81920     2.85917     9.50073    35.69989   197.79328
 Coeff:                 0.27070     0.30552     0.18297     0.10986     0.06810     0.04224


 All pairs explicitly correlated. Number of r12-pairs:           28

 Excluding core orbitals from MO domains

 AO(A)-basis ORBITAL           loaded. Number of functions:     178
 RI(R)-basis CC-PVTZ-F12/OPTRI loaded. Number of functions:     314
 DF-basis AUG-CC-PVTZ/JKFIT    loaded. Number of functions:     392

 Screening thresholds:   THRAO=  1.00D-10  THRMO=  1.00D-09  THRPROD=  1.00D-09
                         THRSW=  1.00D-05  THROV=  1.00D-12  THRAOF12= 1.00D-08

 CPU time for Fock operators                      1.73 sec

 Construction of ABS:
 Smallest eigenvalue of S          4.34E-04  (threshold= 1.00E-08)
 Ratio eigmin/eigmax               5.54E-05  (threshold= 1.00E-09)
 Smallest eigenvalue of S kept     4.34E-04  (threshold= 4.34E-04, 0 functions deleted, 314 kept)

 Construction of CABS:
 Smallest eigenvalue of S          7.26E-07  (threshold= 1.00E-08)
 Ratio eigmin/eigmax               7.26E-07  (threshold= 1.00E-09)
 Smallest eigenvalue of S kept     7.26E-07  (threshold= 7.26E-07, 0 functions deleted, 314 kept)

 CPU time for CABS singles                        0.04 sec

 CABS-singles contribution of  -0.00135366 patched into reference energy.
 New reference energy        -115.10013997

 AO(A)-basis ORBITAL           loaded. Number of functions:     178
 RI(R)-basis CC-PVTZ-F12/OPTRI loaded. Number of functions:     314
 DF-basis AUG-CC-PVTZ/MP2FIT   loaded. Number of functions:     396

 Screening thresholds:   THRAO=  1.00D-10  THRMO=  1.00D-09  THRPROD=  1.00D-09
                         THRSW=  1.00D-05  THROV=  1.00D-12  THRAOF12= 1.00D-08

 CPU time for 3-index integral evaluation         4.27 sec
 CPU time for first  half transformation          0.35 sec ( 7054.4 MFLOP/sec)
 CPU time for second half transformation          0.03 sec ( 2072.3 MFLOP/sec)
 CPU time for sorting                             0.01 sec
 CPU time for fitting                             0.03 sec (37980.8 MFLOP/sec)
 CPU time for tilde quantities                    0.01 sec (******* MFLOP/sec)
 CPU time for assembly                            0.21 sec (58826.6 MFLOP/sec)
 CPU time for tranop_f12                          0.29 sec (54690.4 MFLOP/sec)
 CPU time for f12 integrals (total)               5.68 sec, Elapsed time:      6.99 sec
 CPU time for f12 matrices (total)                0.11 sec, Elapsed time:      0.23 sec

 Diagonal F12 approximation with fixed coefficients:  TSING= 0.500,  TTRIP= 0.250 (scaled by -1/beta)

 DF-MP2-F12 energy corrections:
 ==============================
 Approx.                                    Singlet             Triplet             Total
 DF-MP2-F12/3*C(DX,FIX)                -0.038287457933     -0.004212611103     -0.042500069036
 DF-MP2-F12/3*C(FIX)                   -0.036088597652     -0.003930866659     -0.040019464310
 DF-MP2-F12/3C(FIX)                    -0.036031321063     -0.004065842078     -0.040097163141

 DF-MP2-F12 correlation energies:
 ================================
 Approx.                                    Singlet             Triplet             Ecorr            Total Energy
 DF-MP2                                -0.291094763030     -0.152361365245     -0.443456128275   -115.543596096910
 DF-MP2-F12/3*C(DX,FIX)                -0.329382220963     -0.156573976348     -0.485956197310   -115.586096165946
 DF-MP2-F12/3*C(FIX)                   -0.327183360682     -0.156292231903     -0.483475592585   -115.583615561221
 DF-MP2-F12/3C(FIX)                    -0.327126084094     -0.156427207323     -0.483553291416   -115.583693260052

 SCS-DF-MP2 energies (F_SING= 1.20000  F_TRIP= 0.62222  F_PARALLEL= 0.33333):
 ============================================================================
 SCS-DF-MP2                            -0.444116342900   -115.544256311535
 SCS-DF-MP2-F12/3*C(DX,FIX)            -0.492682472661   -115.592822441296
 SCS-DF-MP2-F12/3*C(FIX)               -0.489868532669   -115.590008501305
 SCS-DF-MP2-F12/3C(FIX)                -0.489883785469   -115.590023754104
 Symmetry transformation completed.

 Number of N-1 electron functions:               7
 Number of N-2 electron functions:              28
 Number of singly external CSFs:              1183
 Number of doubly external CSFs:            700336
 Total number of CSFs:                      701520

 Length of J-op  integral file:             104.98 MB
 Length of K-op  integral file:             138.67 MB

 Integral transformation finished. Total CPU:   1.43 sec, npass=  1  Memory used:   2.18 MW

 ITER.      SQ.NORM     CORR.ENERGY   TOTAL ENERGY   ENERGY CHANGE     VAR   MIC
   1      1.00000000    -0.44352253  -115.54366250    -0.44352253  0.00D+00   0
   2      1.11473405    -0.44352253  -115.54366250     0.00000000 -0.28D-14   0

 Solving MP2-F12 equations

   1      1.11469774    -0.48286160  -115.58300157    -0.03933907 -0.37D-04   0
   2      1.11469774    -0.48361829  -115.58375826    -0.00075669 -0.33D-17   0
   3      1.11469774    -0.48361829  -115.58375826     0.00000000  0.78D-19   0

 CPU TIME FOR ITERATIVE MP2:    0.12 SEC


 MP2-F12 energy corrections:
 ===========================
 Approx.                                    Singlet             Triplet             Total
 MP2-F12/3*C(DX,FIX)                   -0.038287457933     -0.004212611103     -0.042500069036
 MP2-F12/3*C(FIX)                      -0.036088597652     -0.003930866659     -0.040019464310
 MP2-F12/3C(FIX)                       -0.036028621150     -0.004067138076     -0.040095759226

 MP2-F12 correlation energies:
 =============================
 Approx.                                    Singlet             Triplet             Ecorr            Total Energy
 MP2                                   -0.291278077131     -0.152244452210     -0.443522529341   -115.543662497976
 MP2-F12/3*C(DX,FIX)                   -0.329565535063     -0.156457063313     -0.486022598376   -115.586162567012
 MP2-F12/3*C(FIX)                      -0.327366674782     -0.156175318868     -0.483541993651   -115.583681962286
 MP2-F12/3C(FIX)                       -0.327306698281     -0.156311590285     -0.483618288566   -115.583758257202

 SCS-MP2 energies (F_SING= 1.20000  F_TRIP= 0.62222  F_PARALLEL= 0.33333):
 =========================================================================
 SCS-MP2                               -0.444263573932   -115.544403542567
 SCS-MP2-F12/3*C(DX,FIX)               -0.492829703693   -115.592969672328
 SCS-MP2-F12/3*C(FIX)                  -0.490015763701   -115.590155732337
 SCS-MP2-F12/3C(FIX)                   -0.490028583003   -115.590168551639


  Reference energy                   -115.098786306963
  F12 singles correction               -0.001353661672

 F12 singles corrections added to reference energy

  New reference energy               -115.100139968636

  F12/3C(F) singlet correction         -0.036028621150
  F12/3C(F) triplet correction         -0.004067138076
  F12/3C(F) total correction           -0.040095759226
  MP2-F12/3C(F) singlet pair energy    -0.327306698281
  MP2-F12/3C(F) triplet pair energy    -0.156311590285
  MP2-F12/3C(F) correlation energy     -0.483618288566

 !MP2-F12/3C(F) total energy         -115.583758257202


 **********************************************************************************************************************************
 DATASETS  * FILE   NREC   LENGTH (MB)   RECORD NAMES
              1      20      565.57       500      610      700      900      950      970     1000      129      960     1100   
                                          VAR    BASINP    GEOM    SYMINP    ZMAT    AOBASIS   BASIS     P2S    ABASIS      S 
                                         1400     1410     1200     1210     1080     1600     1650     1300     1700     1380   
                                           T        V       H0       H01     AOSYM     SMH    MOLCAS    ERIS     OPER     JKOP   

              2       7        4.13       700     1000      520     2100     7360     7350     7000   
                                         GEOM     BASIS   MCVARS     RHF    F12ABS    EF12   

 PROGRAMS   *        TOTAL   MP2-F12    HF-SCF       INT
 CPU TIMES  *        26.21      9.32      7.95      8.80
 REAL TIME  *        99.32 SEC
 DISK USED  *         2.14 GB
 **********************************************************************************************************************************


 PROGRAM * CCSD (Closed-shell coupled cluster)     Authors: C. Hampel, H.-J. Werner, 1991, M. Deegan, P.J. Knowles, 1992

                                  CCSD-F12 implementation by  H.-J. Werner, 2007

                   Density fitting integral evaluation by F.R. Manby, 2003,2007, G. Knizia, 2010



 Convergence thresholds:  THRVAR = 1.00D-08  THRDEN = 1.00D-06

 CCSD(T)     terms to be evaluated (factor= 1.000)


 Number of core orbitals:           2 (   2 )
 Number of closed-shell orbitals:   7 (   7 )
 Number of external orbitals:     169 ( 169 )

 Molecular orbitals read from record     2100.2  Type=RHF/CANONICAL (state 1.1)

 MP2-F12 correlation treatment (H.-J. Werner, 2006)
 ==================================================

 Using MP2-F12 with ansatz 3C(FIX)

 Using projected zeroth-order Hamiltonian (+Z)

 FOCKRIB=T FOCKRIC=T FOCKRIP=T CABSP=T CABSA=T CABSK=T CABSF=T GBC=F EBC=F DMAT=T NOFIK=T NOPAO=1 SOLVE=-1  USEPAO=0
 EXCH_A= T EXCH_B= F EXCH_C= F EXCH_P= F

 Geminal basis:    OPTFULL  GEM_TYPE=SLATER  BETA=1.0  NGEM=6

 Optimizing Gaussian exponents for each gem_beta

 Geminal optimization for beta= 1.0000
 Weight function:   m=0, omega= 1.4646

 Augmented Hessian optimization of geminal fit. Trust ratio= 0.40000
 Convergence reached after   2 iterations. Final gradient= 8.66D-16, Step= 4.23D-06, Delta= 1.28D-09

 Alpha:                 0.19532     0.81920     2.85917     9.50073    35.69989   197.79328
 Coeff:                 0.27070     0.30552     0.18297     0.10986     0.06810     0.04224


 All pairs explicitly correlated. Number of r12-pairs:           28

 Excluding core orbitals from MO domains

 AO(A)-basis ORBITAL           loaded. Number of functions:     178
 RI(R)-basis CC-PVTZ-F12/OPTRI loaded. Number of functions:     314
 DF-basis AUG-CC-PVTZ/JKFIT    loaded. Number of functions:     392

 Screening thresholds:   THRAO=  1.00D-10  THRMO=  1.00D-09  THRPROD=  1.00D-09
                         THRSW=  1.00D-05  THROV=  1.00D-12  THRAOF12= 1.00D-08

 CPU time for Fock operators                      1.73 sec

 Construction of ABS:
 Smallest eigenvalue of S          4.34E-04  (threshold= 1.00E-08)
 Ratio eigmin/eigmax               5.54E-05  (threshold= 1.00E-09)
 Smallest eigenvalue of S kept     4.34E-04  (threshold= 4.34E-04, 0 functions deleted, 314 kept)

 Construction of CABS:
 Smallest eigenvalue of S          7.26E-07  (threshold= 1.00E-08)
 Ratio eigmin/eigmax               7.26E-07  (threshold= 1.00E-09)
 Smallest eigenvalue of S kept     7.26E-07  (threshold= 7.26E-07, 0 functions deleted, 314 kept)

 CPU time for CABS singles                        0.05 sec

 CABS-singles contribution of  -0.00135366 patched into reference energy.
 New reference energy        -115.10013997

 AO(A)-basis ORBITAL           loaded. Number of functions:     178
 RI(R)-basis CC-PVTZ-F12/OPTRI loaded. Number of functions:     314
 DF-basis AUG-CC-PVTZ/MP2FIT   loaded. Number of functions:     396

 Screening thresholds:   THRAO=  1.00D-10  THRMO=  1.00D-09  THRPROD=  1.00D-09
                         THRSW=  1.00D-05  THROV=  1.00D-12  THRAOF12= 1.00D-08

 CPU time for 3-index integral evaluation         4.34 sec
 CPU time for first  half transformation          0.33 sec ( 7482.0 MFLOP/sec)
 CPU time for second half transformation          0.02 sec ( 3108.5 MFLOP/sec)
 CPU time for fitting                             0.03 sec (37980.8 MFLOP/sec)
 CPU time for tilde quantities                    0.02 sec (75522.6 MFLOP/sec)
 CPU time for assembly                            0.22 sec (56152.7 MFLOP/sec)
 CPU time for tranop_f12                          0.29 sec (54690.4 MFLOP/sec)
 CPU time for f12 integrals (total)               5.69 sec, Elapsed time:      6.07 sec
 CPU time for f12 matrices (total)                0.11 sec, Elapsed time:      0.14 sec

 Diagonal F12 approximation with fixed coefficients:  TSING= 0.500,  TTRIP= 0.250 (scaled by -1/beta)

 DF-MP2-F12 energy corrections:
 ==============================
 Approx.                                    Singlet             Triplet             Total
 DF-MP2-F12/3*C(DX,FIX)                -0.038287457933     -0.004212611103     -0.042500069036
 DF-MP2-F12/3*C(FIX)                   -0.036088597652     -0.003930866659     -0.040019464310
 DF-MP2-F12/3C(FIX)                    -0.036031321063     -0.004065842078     -0.040097163141

 DF-MP2-F12 correlation energies:
 ================================
 Approx.                                    Singlet             Triplet             Ecorr            Total Energy
 DF-MP2                                -0.291094763030     -0.152361365245     -0.443456128275   -115.543596096910
 DF-MP2-F12/3*C(DX,FIX)                -0.329382220963     -0.156573976348     -0.485956197310   -115.586096165946
 DF-MP2-F12/3*C(FIX)                   -0.327183360682     -0.156292231903     -0.483475592585   -115.583615561221
 DF-MP2-F12/3C(FIX)                    -0.327126084094     -0.156427207323     -0.483553291416   -115.583693260052

 SCS-DF-MP2 energies (F_SING= 1.20000  F_TRIP= 0.62222  F_PARALLEL= 0.33333):
 ============================================================================
 SCS-DF-MP2                            -0.444116342900   -115.544256311535
 SCS-DF-MP2-F12/3*C(DX,FIX)            -0.492682472661   -115.592822441296
 SCS-DF-MP2-F12/3*C(FIX)               -0.489868532669   -115.590008501305
 SCS-DF-MP2-F12/3C(FIX)                -0.489883785469   -115.590023754104
 Symmetry transformation completed.

 Number of N-1 electron functions:               7
 Number of N-2 electron functions:              28
 Number of singly external CSFs:              1183
 Number of doubly external CSFs:            700336
 Total number of CSFs:                      701520

 Length of J-op  integral file:             105.23 MB
 Length of K-op  integral file:             138.67 MB
 Length of 3-ext integral record:             0.00 MB

 Memory could be reduced to 48.01 Mwords without degradation in triples

 Integral transformation finished. Total CPU:   3.29 sec, npass=  1  Memory used:  24.86 MW

 Reference energy:                   -115.10013997

 Adding F12 terms to K(Cij), methodcc=6,  factor= 1.0

 ITER.      SQ.NORM     CORR.ENERGY   TOTAL ENERGY   ENERGY CHANGE        DEN1      VAR(S)    VAR(P)  DIIS     TIME  TIME/IT
   1      1.11762153    -0.45285577  -115.55299574    -0.00933324     0.00166827  0.15D-02  0.19D-02  1  1    13.82     4.83
   2      1.12503120    -0.45321754  -115.55335751    -0.00036178    -0.00904652  0.24D-04  0.23D-03  2  2    16.66     4.18
   3      1.12776068    -0.45339495  -115.55353492    -0.00017741    -0.00186508  0.15D-04  0.13D-04  3  3    19.51     3.82
   4      1.12870796    -0.45341283  -115.55355280    -0.00001788    -0.00060020  0.86D-06  0.12D-05  4  4    22.35     3.64
   5      1.12886353    -0.45341438  -115.55355435    -0.00000155    -0.00003792  0.23D-06  0.10D-06  5  5    25.19     3.53
   6      1.12890612    -0.45341203  -115.55355200     0.00000235    -0.00000423  0.36D-07  0.96D-08  6  6    28.04     3.46
   7      1.12891725    -0.45341115  -115.55355112     0.00000087    -0.00000299  0.40D-08  0.14D-08  6  1    30.88     3.40
   8      1.12891905    -0.45341121  -115.55355118    -0.00000006     0.00000034  0.67D-09  0.20D-09  6  3    33.72     3.36

 Norm of t1 vector:      0.05001049      S-energy:     0.00000011      T1 diagnostic:  0.00945109
                                                                       D1 diagnostic:  0.02003841

 Adding energy correction from Wij-K(Fij), methodcc=6  factor= 1.0

  CCSD correlation energy              -0.453411213764
  MP2-F12 correction (uncoupled)       -0.038545398673
  C*T doubles correction               -0.001164963416
  f12b correction                       0.007098764565


 Total CPU time for triples:     37.16 sec


 RESULTS
 =======

  Reference energy                   -115.098786306963
  F12 singles correction               -0.001353661672

 F12 singles corrections added to reference energy

  New reference energy               -115.100139968636

  F12a singlet correction              -0.035791818902
  F12a triplet correction              -0.003918543186
  F12a total correction                -0.039710362089

 F12a corrections for ansatz F12/3C(FIX) added to CCSD energy

  CCSD-F12a singlet pair energy        -0.351208663294
  CCSD-F12a triplet pair energy        -0.141913018067
  CCSD-F12a correlation energy         -0.493121575853

  Triples (T) contribution             -0.016014394704
  Total correlation energy             -0.509135970557

  CCSD-F12a total energy             -115.593261544488
  CCSD[T]-F12a energy                -115.609829068537
  CCSD-T-F12a energy                 -115.609032192372
 !CCSD(T)-F12a total energy          -115.609275939192

 F12b corrections for ansatz F12/3C(FIX) added to CCSD(T)-F12a energy

  CCSD-F12b singlet pair energy        -0.344571971800
  CCSD-F12b triplet pair energy        -0.141450944996
  CCSD-F12b correlation energy         -0.486022811288

  Triples (T) contribution             -0.016014394704
  Total correlation energy             -0.502037205992

  CCSD-F12b total energy             -115.586162779924
  CCSD[T]-F12b energy                -115.602730303972
  CCSD-T-F12b energy                 -115.601933427807
 !CCSD(T)-F12b total energy          -115.602177174627

 Timing summary (sec):

 STEP                 CPU(USER)    SYS     CPU(TOT)    WALL
 Transformation          3.32      1.02      4.34      6.37
 CCSD iterations        22.74      2.09     24.83     26.97
 Triples                37.16      1.02     38.18     38.33
 MP2-F12                 7.68      0.46      8.14      8.18
 F12b energy             2.28      0.12      2.40      2.43

 Program statistics:

 Available memory in ccsd:               499999646
 Min. memory needed in ccsd:               2228017
 Max. memory used in ccsd:                 2807120
 Max. memory used in cckext:               2027429 ( 9 integral passes)



 **********************************************************************************************************************************
 DATASETS  * FILE   NREC   LENGTH (MB)   RECORD NAMES
              1      20      701.52       500      610      700      900      950      970     1000      129      960     1100   
                                          VAR    BASINP    GEOM    SYMINP    ZMAT    AOBASIS   BASIS     P2S    ABASIS      S 
                                         1400     1410     1200     1210     1080     1600     1650     1300     1700     1380   
                                           T        V       H0       H01     AOSYM     SMH    MOLCAS    ERIS     OPER     JKOP   

              2       7        4.13       700     1000      520     2100     7360     7350     7000   
                                         GEOM     BASIS   MCVARS     RHF    F12ABS    EF12   

 PROGRAMS   *        TOTAL   CCSD(T)   MP2-F12    HF-SCF       INT
 CPU TIMES  *        99.42     73.21      9.32      7.95      8.80
 REAL TIME  *       181.78 SEC
 DISK USED  *         2.14 GB
 **********************************************************************************************************************************
 SETTING XXX            =    "MMM"
 SETTING POINT          =       101.00000000                                  

 *** ### CH3OH


 XXX       RCO          ROH          RCH1         RCH2         RCH3           ACOH           AOCH1          AOCH2          AOCH3         AHH1           AHH2           AHH3            ENERGY        POINT
 "MMM"   1.42077677   0.96013932   1.09171752   1.08440070   1.09171752   108.12930637   111.65221523   107.18733878   111.65221523   61.19794053   180.11785113   298.68420834   -115.60927594   101.0000
                                                  

 CCSD(T)-F12/cc-pVTZ-F12 energy=   -115.602177174627

     CCSD(T)-F12         MP2-F12          HF-SCF
   -115.60217717   -115.58375826   -115.09878631
 **********************************************************************************************************************************
 Molpro calculation terminated
