
 Primary working directories    : /tmpdir/job/2955635.undefined/molpro.IOdZC0TU1J
 Secondary working directories  : /tmpdir/job/2955635.undefined/molpro.IOdZC0TU1J
 Wavefunction directory         : /home/zcaposm/wfu/
 Main file repository           : /tmpdir/job/2955635.undefined/molpro.IOdZC0TU1J/

 id        : uclcc

 Nodes                         nprocs
 node-d00a-219.myriad.ucl.ac.uk    1

 Using customized tuning parameters: mindgm=1; mindgv=20; mindgc=4; mindgr=1; noblas=0; minvec=7
 default implementation of scratch files=df  


 Variables initialized (945), CPU time= 0.01 sec
 ***,Methanol Ground State Energy with CCSD(T)-F12 and cc-pVTZ-F12
 memory,500,m;
 
 geometry={angstrom
 c
 o , 1, rco
 h , 2, roh, 1, acoh
 h1, 1, rch1, 2, aoch1  3  ahh1
 h2, 1, rch2, 2, aoch2, 3, ahh2
 h3, 1, rch3, 2, aoch3, 3, ahh3
 }
 
                                                ! Specify the initial values of the internal coordinates (in Angstroms and degrees)
 
 rco= 1.42077677
 roh= 0.96013932
 rch1= 1.091717515605
 rch2= 1.08440070258
 rch3= 1.091717515605
 acoh= 108.12930637
 aoch1= 112.6522152299
 aoch2= 107.18733878260001
 aoch3= 111.6522152299
 ahh1=61.43364279
 ahh2=180.0
 ahh3=298.56635721
 
                                                                                 ! Use the cc-pVTZ-F12 basis set
 basis=cc-pVTZ-F12
 
 hf
 
                                                                                 ! Use explicitly correlated F12 methods
                                                                            ! First, MP2-F12 (useful for initial electronic energy)
 {mp2-f12}
 
                                                                        ! If desired, perform CCSD(T)-F12 for more accurate results
 {ccsd(t)-f12}
 
                                                                                 ! Output the energy
 xxx = "mmm"
 point = 68
 text ### CH3OH
 table,xxx,rco,roh,rch1,rch2,rch3,acoh,aoch1,aoch2,aoch3,ahh1,ahh2,ahh3,energy,point
 DIGITS, 0, 8, 8, 8, 8, 8, 8, 8, 8, 8,  8,  8,  8, 8, 4
 save,CH3OH_MEP_MP2_68.dat,new
 
 Commands  initialized (802), CPU time= 0.01 sec, 659 directives.
 Default parameters read. Elapsed time= 0.09 sec

 Checking input...
 Passed
1


                                         ***  PROGRAM SYSTEM MOLPRO  ***
                                       Copyright, TTI GmbH Stuttgart, 2015
                                    Version 2020.1 linked Oct  6 2020 12:04:11


 **********************************************************************************************************************************
 LABEL *   Methanol Ground State Energy with CCSD(T)-F12 and cc-pVTZ-F12                 
  64 bit serial version                                                                  DATE: 08-Oct-24          TIME: 17:30:36  
 **********************************************************************************************************************************

 SHA1:             8c27446f6450a7499e38f603e13c65f775101d37
 **********************************************************************************************************************************

 Memory per process:       500 MW
 Total memory per node:    500 MW

 GA preallocation disabled
 GA check disabled

 Variable memory set to 500.0 MW

 SETTING RCO            =         1.42077677                                  
 SETTING ROH            =         0.96013932                                  
 SETTING RCH1           =         1.09171752                                  
 SETTING RCH2           =         1.08440070                                  
 SETTING RCH3           =         1.09171752                                  
 SETTING ACOH           =       108.12930637                                  
 SETTING AOCH1          =       112.65221523                                  
 SETTING AOCH2          =       107.18733878                                  
 SETTING AOCH3          =       111.65221523                                  
 SETTING AHH1           =        61.43364279                                  
 SETTING AHH2           =       180.00000000                                  
 SETTING AHH3           =       298.56635721                                  
 SETTING BASIS          =    CC-PVTZ-F12


 Recomputing integrals since basis changed


 Using spherical harmonics

 Library entry C      S cc-pVTZ-F12          selected for orbital group  1
 Library entry C      P cc-pVTZ-F12          selected for orbital group  1
 Library entry C      D cc-pVTZ-F12          selected for orbital group  1
 Library entry C      F cc-pVTZ-F12          selected for orbital group  1
 Library entry O      S cc-pVTZ-F12          selected for orbital group  2
 Library entry O      P cc-pVTZ-F12          selected for orbital group  2
 Library entry O      D cc-pVTZ-F12          selected for orbital group  2
 Library entry O      F cc-pVTZ-F12          selected for orbital group  2
 Library entry H      S cc-pVTZ-F12          selected for orbital group  3
 Library entry H      P cc-pVTZ-F12          selected for orbital group  3
 Library entry H      D cc-pVTZ-F12          selected for orbital group  3


 PROGRAM * SEWARD (Integral evaluation for generally contracted gaussian basis sets)     Author: Roland Lindh, 1990

 Geometry written to block  1 of record 700

 Orientation using atomic masses  
 Molecule type: Asymmetric top
 Rotational constants:      23.9161296     24.7733717    129.2385782 GHz  (calculated with average atomic masses)

 Point group  C1  



 ATOMIC COORDINATES

 NR  ATOM    CHARGE       X              Y              Z

   1  C       6.00   -0.000146191    0.024786904   -1.375543257
   2  O       8.00    0.000132705   -0.121389922    1.305353495
   3  H       1.00    0.013206847    1.569593205    1.962965678
   4  H1      1.00    1.678724635    0.964477655   -2.120215949
   5  H2      1.00   -0.014986194   -1.896995306   -2.086765377
   6  H3      1.00   -1.677309695    0.994420790   -2.084835921

 Bond lengths in Bohr (Angstrom)

 1-2  2.684878979  1-4  2.063047110  1-5  2.049220337  1-6  2.063047110  2-3  1.814400356
     ( 1.420776770)     ( 1.091717516)     ( 1.084400703)     ( 1.091717516)     ( 0.960139320)

 Bond angles

  1-2-3  108.12930637   2-1-4  112.65221523   2-1-5  107.18733878   2-1-6  111.65221523

  4-1-5  107.92528403   4-1-6  108.86796723   5-1-6  108.39459424

 NUCLEAR CHARGE:                   18
 NUMBER OF PRIMITIVE AOS:         228
 NUMBER OF SYMMETRY AOS:          206
 NUMBER OF CONTRACTIONS:          178   (  178A   )
 NUMBER OF INNER CORE ORBITALS:     0   (    0A   )
 NUMBER OF OUTER CORE ORBITALS:     2   (    2A   )
 NUMBER OF VALENCE ORBITALS:       12   (   12A   )


 NUCLEAR REPULSION ENERGY   40.33451337

 Eigenvalues of metric

         1 0.879E-04 0.183E-03 0.310E-03 0.323E-03 0.460E-03 0.493E-03 0.560E-03 0.570E-03


 Contracted 2-electron integrals neglected if value below      1.0D-11
 AO integral compression algorithm  1   Integral accuracy      1.0D-11

     606.339 MB (compressed) written to integral file ( 50.8%)


 NUMBER OF SORTED TWO-ELECTRON INTEGRALS:  126906346.     BUFFER LENGTH:  32768
 NUMBER OF SEGMENTS:   8  SEGMENT LENGTH:   15999503      RECORD LENGTH: 524288

 Memory used in sort:      16.56 MW

 SORT1 READ   149034713. AND WROTE   124735392. INTEGRALS IN    360 RECORDS. CPU TIME:     2.56 SEC, REAL TIME:    26.45 SEC
 SORT2 READ   124735392. AND WROTE   126906346. INTEGRALS IN   2313 RECORDS. CPU TIME:     2.06 SEC, REAL TIME:    36.50 SEC

 FILE SIZES:   FILE 1:   637.6 MBYTE,  FILE 4:  1510.0 MBYTE,   TOTAL:   2147.5 MBYTE

 OPERATOR DM      FOR CENTER  0  COORDINATES:    0.000000    0.000000    0.000000


 **********************************************************************************************************************************
 DATASETS  * FILE   NREC   LENGTH (MB)   RECORD NAMES
              1      19      559.85       500      610      700      900      950      970     1000      129      960     1100   
                                          VAR    BASINP    GEOM    SYMINP    ZMAT    AOBASIS   BASIS     P2S    ABASIS      S 
                                         1400     1410     1200     1210     1080     1600     1650     1300     1700   
                                           T        V       H0       H01     AOSYM     SMH    MOLCAS    ERIS     OPER   

 PROGRAMS   *        TOTAL       INT
 CPU TIMES  *         9.52      9.41
 REAL TIME  *        79.90 SEC
 DISK USED  *         2.15 GB
 **********************************************************************************************************************************


 PROGRAM * RHF-SCF (CLOSED SHELL)       Authors: W. Meyer, H.-J. Werner


 NUMBER OF ELECTRONS:       9+    9-    SPACE SYMMETRY=1    SPIN SYMMETRY: Singlet 
 CONVERGENCE THRESHOLDS:    1.00E-05 (Density)    1.00E-07 (Energy)
 MAX. NUMBER OF ITERATIONS:       60
 INTERPOLATION TYPE:            DIIS
 INTERPOLATION STEPS:              2 (START)      1 (STEP)
 LEVEL SHIFTS:                  0.00 (CLOSED)  0.00 (OPEN) 



 Orbital guess generated from atomic densities. Full valence occupancy:   14

 Molecular orbital dump at record        2100.2

 Initial occupancy:   9

 ITERATION    DDIFF          GRAD             ENERGY        2-EL.EN.            DIPOLE MOMENTS         DIIS   ORB.
    1      0.000D+00      0.000D+00      -115.06241477    164.450198    0.00826    0.90494   -0.47842    0    start
    2      0.000D+00      0.505D-02      -115.09071498    161.879129    0.00367    0.49697   -0.30374    1    diag
    3      0.479D-02      0.276D-02      -115.09815434    163.138169    0.00494    0.60039   -0.39675    2    diag
    4      0.163D-02      0.547D-03      -115.09868712    162.961143    0.00489    0.59522   -0.39200    3    diag
    5      0.437D-03      0.110D-03      -115.09872158    162.972610    0.00486    0.59125   -0.39675    4    diag
    6      0.122D-03      0.205D-04      -115.09872314    162.970409    0.00487    0.59139   -0.39751    5    diag
    7      0.349D-04      0.433D-05      -115.09872321    162.970010    0.00487    0.59121   -0.39778    6    diag
    8      0.873D-05      0.114D-05      -115.09872321    162.970362    0.00486    0.59121   -0.39779    0    orth

 Final occupancy:   9

 !RHF STATE  1.1 Energy              -115.098723211152
 Nuclear energy                        40.33451337
 One-electron energy                 -236.91841773
 Two-electron energy                   81.48518115
 Virial quotient                       -1.00103178
 !RHF STATE  1.1 Dipole moment          0.00486495     0.59120761    -0.39779036
 Dipole moment /Debye                   0.01236465     1.50260143    -1.01101602

 Orbital energies:

         1.1          2.1          3.1          4.1          5.1          6.1          7.1          8.1          9.1         10.1
    -20.556941   -11.269747    -1.357145    -0.926678    -0.691408    -0.620724    -0.594365    -0.504705    -0.452314     0.054583

        11.1
      0.064957


 HOMO      9.1    -0.452314 =     -12.3081eV
 LUMO     10.1     0.054583 =       1.4853eV
 LUMO-HOMO         0.506897 =      13.7934eV


 **********************************************************************************************************************************
 DATASETS  * FILE   NREC   LENGTH (MB)   RECORD NAMES
              1      19      559.85       500      610      700      900      950      970     1000      129      960     1100   
                                          VAR    BASINP    GEOM    SYMINP    ZMAT    AOBASIS   BASIS     P2S    ABASIS      S 
                                         1400     1410     1200     1210     1080     1600     1650     1300     1700   
                                           T        V       H0       H01     AOSYM     SMH    MOLCAS    ERIS     OPER   

              2       4        3.48       700     1000      520     2100   
                                         GEOM     BASIS   MCVARS     RHF  

 PROGRAMS   *        TOTAL    HF-SCF       INT
 CPU TIMES  *        17.43      7.91      9.41
 REAL TIME  *        91.55 SEC
 DISK USED  *         2.15 GB
 **********************************************************************************************************************************


 PROGRAM * MP2 (Closed-shell)     Authors: C. Hampel, H.-J. Werner, 1991, M. Deegan, P.J. Knowles, 1992

                                   MP2-F12 implementation by H.-J. Werner, 2007

                   Density fitting integral evaluation by F.R. Manby, 2003,2007, G. Knizia, 2010


 Basis set AUG-CC-PVTZ/JKFIT generated.  Number of basis functions:   392 
 Basis set CC-PVTZ-F12/OPTRI generated.  Number of basis functions:   314 
 Basis set AUG-CC-PVTZ/MP2FIT generated. Number of basis functions:   396 

 Convergence thresholds:  THRVAR = 1.00D-08  THRDEN = 1.00D-06

 Number of core orbitals:           2 (   2 )
 Number of closed-shell orbitals:   7 (   7 )
 Number of external orbitals:     169 ( 169 )

 Molecular orbitals read from record     2100.2  Type=RHF/CANONICAL (state 1.1)

 MP2-F12 correlation treatment (H.-J. Werner, 2006)
 ==================================================

 Using MP2-F12 with ansatz 3C(FIX)

 Using projected zeroth-order Hamiltonian (+Z)

 FOCKRIB=T FOCKRIC=T FOCKRIP=T CABSP=T CABSA=T CABSK=T CABSF=T GBC=F EBC=F DMAT=T NOFIK=T NOPAO=1 SOLVE=-1  USEPAO=0
 EXCH_A= T EXCH_B= F EXCH_C= F EXCH_P= F

 Geminal basis:    OPTFULL  GEM_TYPE=SLATER  BETA=1.0  NGEM=6

 Optimizing Gaussian exponents for each gem_beta

 Geminal optimization for beta= 1.0000
 Weight function:   m=0, omega= 1.4646

 Augmented Hessian optimization of geminal fit. Trust ratio= 0.40000
 Convergence reached after   2 iterations. Final gradient= 8.66D-16, Step= 4.23D-06, Delta= 1.28D-09

 Alpha:                 0.19532     0.81920     2.85917     9.50073    35.69989   197.79328
 Coeff:                 0.27070     0.30552     0.18297     0.10986     0.06810     0.04224


 All pairs explicitly correlated. Number of r12-pairs:           28

 Excluding core orbitals from MO domains

 AO(A)-basis ORBITAL           loaded. Number of functions:     178
 RI(R)-basis CC-PVTZ-F12/OPTRI loaded. Number of functions:     314
 DF-basis AUG-CC-PVTZ/JKFIT    loaded. Number of functions:     392

 Screening thresholds:   THRAO=  1.00D-10  THRMO=  1.00D-09  THRPROD=  1.00D-09
                         THRSW=  1.00D-05  THROV=  1.00D-12  THRAOF12= 1.00D-08

 CPU time for Fock operators                      1.56 sec

 Construction of ABS:
 Smallest eigenvalue of S          4.36E-04  (threshold= 1.00E-08)
 Ratio eigmin/eigmax               5.58E-05  (threshold= 1.00E-09)
 Smallest eigenvalue of S kept     4.36E-04  (threshold= 4.36E-04, 0 functions deleted, 314 kept)

 Construction of CABS:
 Smallest eigenvalue of S          7.27E-07  (threshold= 1.00E-08)
 Ratio eigmin/eigmax               7.27E-07  (threshold= 1.00E-09)
 Smallest eigenvalue of S kept     7.27E-07  (threshold= 7.27E-07, 0 functions deleted, 314 kept)

 CPU time for CABS singles                        0.04 sec

 CABS-singles contribution of  -0.00135399 patched into reference energy.
 New reference energy        -115.10007720

 AO(A)-basis ORBITAL           loaded. Number of functions:     178
 RI(R)-basis CC-PVTZ-F12/OPTRI loaded. Number of functions:     314
 DF-basis AUG-CC-PVTZ/MP2FIT   loaded. Number of functions:     396

 Screening thresholds:   THRAO=  1.00D-10  THRMO=  1.00D-09  THRPROD=  1.00D-09
                         THRSW=  1.00D-05  THROV=  1.00D-12  THRAOF12= 1.00D-08

 CPU time for 3-index integral evaluation         3.45 sec
 CPU time for first  half transformation          0.31 sec ( 7964.7 MFLOP/sec)
 CPU time for second half transformation          0.01 sec ( 6217.0 MFLOP/sec)
 CPU time for sorting                             0.01 sec
 CPU time for fitting                             0.02 sec (56971.3 MFLOP/sec)
 CPU time for tilde quantities                    0.02 sec (75522.6 MFLOP/sec)
 CPU time for assembly                            0.23 sec (53711.3 MFLOP/sec)
 CPU time for tranop_f12                          0.28 sec (56643.7 MFLOP/sec)
 CPU time for f12 integrals (total)               4.77 sec, Elapsed time:      5.40 sec
 CPU time for f12 matrices (total)                0.11 sec, Elapsed time:      0.14 sec

 Diagonal F12 approximation with fixed coefficients:  TSING= 0.500,  TTRIP= 0.250 (scaled by -1/beta)

 DF-MP2-F12 energy corrections:
 ==============================
 Approx.                                    Singlet             Triplet             Total
 DF-MP2-F12/3*C(DX,FIX)                -0.038283397291     -0.004211542974     -0.042494940265
 DF-MP2-F12/3*C(FIX)                   -0.036085575345     -0.003929859702     -0.040015435048
 DF-MP2-F12/3C(FIX)                    -0.036027984880     -0.004064740112     -0.040092724992

 DF-MP2-F12 correlation energies:
 ================================
 Approx.                                    Singlet             Triplet             Ecorr            Total Energy
 DF-MP2                                -0.291110072928     -0.152390167639     -0.443500240566   -115.543577445270
 DF-MP2-F12/3*C(DX,FIX)                -0.329393470219     -0.156601710613     -0.485995180831   -115.586072385534
 DF-MP2-F12/3*C(FIX)                   -0.327195648273     -0.156320027341     -0.483515675614   -115.583592880317
 DF-MP2-F12/3C(FIX)                    -0.327138057808     -0.156454907750     -0.483592965558   -115.583670170262

 SCS-DF-MP2 energies (F_SING= 1.20000  F_TRIP= 0.62222  F_PARALLEL= 0.33333):
 ============================================================================
 SCS-DF-MP2                            -0.444152636266   -115.544229840970
 SCS-DF-MP2-F12/3*C(DX,FIX)            -0.492713228643   -115.592790433347
 SCS-DF-MP2-F12/3*C(FIX)               -0.489900572718   -115.589977777421
 SCS-DF-MP2-F12/3C(FIX)                -0.489915389747   -115.589992594451
 Symmetry transformation completed.

 Number of N-1 electron functions:               7
 Number of N-2 electron functions:              28
 Number of singly external CSFs:              1183
 Number of doubly external CSFs:            700336
 Total number of CSFs:                      701520

 Length of J-op  integral file:             104.98 MB
 Length of K-op  integral file:             138.67 MB

 Integral transformation finished. Total CPU:   1.38 sec, npass=  1  Memory used:   2.18 MW

 ITER.      SQ.NORM     CORR.ENERGY   TOTAL ENERGY   ENERGY CHANGE     VAR   MIC
   1      1.00000000    -0.44356658  -115.54364378    -0.44356658  0.00D+00   0
   2      1.11477089    -0.44356658  -115.54364378     0.00000000 -0.11D-16   0

 Solving MP2-F12 equations

   1      1.11473446    -0.48290168  -115.58297888    -0.03933510 -0.37D-04   0
   2      1.11473446    -0.48365791  -115.58373511    -0.00075623  0.18D-18   0
   3      1.11473446    -0.48365791  -115.58373511     0.00000000  0.17D-18   0

 CPU TIME FOR ITERATIVE MP2:    0.12 SEC


 MP2-F12 energy corrections:
 ===========================
 Approx.                                    Singlet             Triplet             Total
 MP2-F12/3*C(DX,FIX)                   -0.038283397291     -0.004211542974     -0.042494940265
 MP2-F12/3*C(FIX)                      -0.036085575345     -0.003929859702     -0.040015435048
 MP2-F12/3C(FIX)                       -0.036025290775     -0.004066038549     -0.040091329323

 MP2-F12 correlation energies:
 =============================
 Approx.                                    Singlet             Triplet             Ecorr            Total Energy
 MP2                                   -0.291293352956     -0.152273226219     -0.443566579175   -115.543643783878
 MP2-F12/3*C(DX,FIX)                   -0.329576750246     -0.156484769193     -0.486061519440   -115.586138724143
 MP2-F12/3*C(FIX)                      -0.327378928301     -0.156203085922     -0.483582014223   -115.583659218926
 MP2-F12/3C(FIX)                       -0.327318643730     -0.156339264768     -0.483657908499   -115.583735113202

 SCS-MP2 energies (F_SING= 1.20000  F_TRIP= 0.62222  F_PARALLEL= 0.33333):
 =========================================================================
 SCS-MP2                               -0.444299808750   -115.544377013453
 SCS-MP2-F12/3*C(DX,FIX)               -0.492860401127   -115.592937605830
 SCS-MP2-F12/3*C(FIX)                  -0.490047745201   -115.590124949905
 SCS-MP2-F12/3C(FIX)                   -0.490060137221   -115.590137341924


  Reference energy                   -115.098723211152
  F12 singles correction               -0.001353993551

 F12 singles corrections added to reference energy

  New reference energy               -115.100077204703

  F12/3C(F) singlet correction         -0.036025290775
  F12/3C(F) triplet correction         -0.004066038549
  F12/3C(F) total correction           -0.040091329323
  MP2-F12/3C(F) singlet pair energy    -0.327318643730
  MP2-F12/3C(F) triplet pair energy    -0.156339264768
  MP2-F12/3C(F) correlation energy     -0.483657908499

 !MP2-F12/3C(F) total energy         -115.583735113202


 **********************************************************************************************************************************
 DATASETS  * FILE   NREC   LENGTH (MB)   RECORD NAMES
              1      20      571.03       500      610      700      900      950      970     1000      129      960     1100   
                                          VAR    BASINP    GEOM    SYMINP    ZMAT    AOBASIS   BASIS     P2S    ABASIS      S 
                                         1400     1410     1200     1210     1080     1600     1650     1300     1700     1380   
                                           T        V       H0       H01     AOSYM     SMH    MOLCAS    ERIS     OPER     JKOP   

              2       7        4.13       700     1000      520     2100     7360     7350     7000   
                                         GEOM     BASIS   MCVARS     RHF    F12ABS    EF12   

 PROGRAMS   *        TOTAL   MP2-F12    HF-SCF       INT
 CPU TIMES  *        25.66      8.21      7.91      9.41
 REAL TIME  *       101.27 SEC
 DISK USED  *         2.15 GB
 **********************************************************************************************************************************


 PROGRAM * CCSD (Closed-shell coupled cluster)     Authors: C. Hampel, H.-J. Werner, 1991, M. Deegan, P.J. Knowles, 1992

                                  CCSD-F12 implementation by  H.-J. Werner, 2007

                   Density fitting integral evaluation by F.R. Manby, 2003,2007, G. Knizia, 2010



 Convergence thresholds:  THRVAR = 1.00D-08  THRDEN = 1.00D-06

 CCSD(T)     terms to be evaluated (factor= 1.000)


 Number of core orbitals:           2 (   2 )
 Number of closed-shell orbitals:   7 (   7 )
 Number of external orbitals:     169 ( 169 )

 Molecular orbitals read from record     2100.2  Type=RHF/CANONICAL (state 1.1)

 MP2-F12 correlation treatment (H.-J. Werner, 2006)
 ==================================================

 Using MP2-F12 with ansatz 3C(FIX)

 Using projected zeroth-order Hamiltonian (+Z)

 FOCKRIB=T FOCKRIC=T FOCKRIP=T CABSP=T CABSA=T CABSK=T CABSF=T GBC=F EBC=F DMAT=T NOFIK=T NOPAO=1 SOLVE=-1  USEPAO=0
 EXCH_A= T EXCH_B= F EXCH_C= F EXCH_P= F

 Geminal basis:    OPTFULL  GEM_TYPE=SLATER  BETA=1.0  NGEM=6

 Optimizing Gaussian exponents for each gem_beta

 Geminal optimization for beta= 1.0000
 Weight function:   m=0, omega= 1.4646

 Augmented Hessian optimization of geminal fit. Trust ratio= 0.40000
 Convergence reached after   2 iterations. Final gradient= 8.66D-16, Step= 4.23D-06, Delta= 1.28D-09

 Alpha:                 0.19532     0.81920     2.85917     9.50073    35.69989   197.79328
 Coeff:                 0.27070     0.30552     0.18297     0.10986     0.06810     0.04224


 All pairs explicitly correlated. Number of r12-pairs:           28

 Excluding core orbitals from MO domains

 AO(A)-basis ORBITAL           loaded. Number of functions:     178
 RI(R)-basis CC-PVTZ-F12/OPTRI loaded. Number of functions:     314
 DF-basis AUG-CC-PVTZ/JKFIT    loaded. Number of functions:     392

 Screening thresholds:   THRAO=  1.00D-10  THRMO=  1.00D-09  THRPROD=  1.00D-09
                         THRSW=  1.00D-05  THROV=  1.00D-12  THRAOF12= 1.00D-08

 CPU time for Fock operators                      1.56 sec

 Construction of ABS:
 Smallest eigenvalue of S          4.36E-04  (threshold= 1.00E-08)
 Ratio eigmin/eigmax               5.58E-05  (threshold= 1.00E-09)
 Smallest eigenvalue of S kept     4.36E-04  (threshold= 4.36E-04, 0 functions deleted, 314 kept)

 Construction of CABS:
 Smallest eigenvalue of S          7.27E-07  (threshold= 1.00E-08)
 Ratio eigmin/eigmax               7.27E-07  (threshold= 1.00E-09)
 Smallest eigenvalue of S kept     7.27E-07  (threshold= 7.27E-07, 0 functions deleted, 314 kept)

 CPU time for CABS singles                        0.05 sec

 CABS-singles contribution of  -0.00135399 patched into reference energy.
 New reference energy        -115.10007720

 AO(A)-basis ORBITAL           loaded. Number of functions:     178
 RI(R)-basis CC-PVTZ-F12/OPTRI loaded. Number of functions:     314
 DF-basis AUG-CC-PVTZ/MP2FIT   loaded. Number of functions:     396

 Screening thresholds:   THRAO=  1.00D-10  THRMO=  1.00D-09  THRPROD=  1.00D-09
                         THRSW=  1.00D-05  THROV=  1.00D-12  THRAOF12= 1.00D-08

 CPU time for 3-index integral evaluation         3.35 sec
 CPU time for first  half transformation          0.40 sec ( 6172.6 MFLOP/sec)
 CPU time for fitting                             0.04 sec (28485.6 MFLOP/sec)
 CPU time for tilde quantities                    0.03 sec (50348.4 MFLOP/sec)
 CPU time for assembly                            0.23 sec (53711.3 MFLOP/sec)
 CPU time for tranop_f12                          0.27 sec (58741.6 MFLOP/sec)
 CPU time for f12 integrals (total)               4.76 sec, Elapsed time:      5.22 sec
 CPU time for f12 matrices (total)                0.11 sec, Elapsed time:      0.14 sec

 Diagonal F12 approximation with fixed coefficients:  TSING= 0.500,  TTRIP= 0.250 (scaled by -1/beta)

 DF-MP2-F12 energy corrections:
 ==============================
 Approx.                                    Singlet             Triplet             Total
 DF-MP2-F12/3*C(DX,FIX)                -0.038283397291     -0.004211542974     -0.042494940265
 DF-MP2-F12/3*C(FIX)                   -0.036085575345     -0.003929859702     -0.040015435048
 DF-MP2-F12/3C(FIX)                    -0.036027984880     -0.004064740112     -0.040092724992

 DF-MP2-F12 correlation energies:
 ================================
 Approx.                                    Singlet             Triplet             Ecorr            Total Energy
 DF-MP2                                -0.291110072928     -0.152390167639     -0.443500240566   -115.543577445270
 DF-MP2-F12/3*C(DX,FIX)                -0.329393470219     -0.156601710613     -0.485995180831   -115.586072385534
 DF-MP2-F12/3*C(FIX)                   -0.327195648273     -0.156320027341     -0.483515675614   -115.583592880317
 DF-MP2-F12/3C(FIX)                    -0.327138057808     -0.156454907750     -0.483592965558   -115.583670170262

 SCS-DF-MP2 energies (F_SING= 1.20000  F_TRIP= 0.62222  F_PARALLEL= 0.33333):
 ============================================================================
 SCS-DF-MP2                            -0.444152636266   -115.544229840970
 SCS-DF-MP2-F12/3*C(DX,FIX)            -0.492713228643   -115.592790433347
 SCS-DF-MP2-F12/3*C(FIX)               -0.489900572718   -115.589977777421
 SCS-DF-MP2-F12/3C(FIX)                -0.489915389747   -115.589992594451
 Symmetry transformation completed.

 Number of N-1 electron functions:               7
 Number of N-2 electron functions:              28
 Number of singly external CSFs:              1183
 Number of doubly external CSFs:            700336
 Total number of CSFs:                      701520

 Length of J-op  integral file:             105.23 MB
 Length of K-op  integral file:             138.67 MB
 Length of 3-ext integral record:             0.00 MB

 Memory could be reduced to 48.01 Mwords without degradation in triples

 Integral transformation finished. Total CPU:   3.28 sec, npass=  1  Memory used:  24.86 MW

 Reference energy:                   -115.10007720

 Adding F12 terms to K(Cij), methodcc=6,  factor= 1.0

 ITER.      SQ.NORM     CORR.ENERGY   TOTAL ENERGY   ENERGY CHANGE        DEN1      VAR(S)    VAR(P)  DIIS     TIME  TIME/IT
   1      1.11765367    -0.45289180  -115.55296900    -0.00932522     0.00167736  0.15D-02  0.19D-02  1  1    12.96     7.33
   2      1.12506354    -0.45325310  -115.55333031    -0.00036130    -0.00904678  0.24D-04  0.23D-03  2  2    15.85     5.44
   3      1.12779367    -0.45343052  -115.55350773    -0.00017742    -0.00186526  0.15D-04  0.13D-04  3  3    18.71     4.66
   4      1.12874115    -0.45344838  -115.55352559    -0.00001786    -0.00060037  0.86D-06  0.12D-05  4  4    21.63     4.30
   5      1.12889655    -0.45344994  -115.55352714    -0.00000156    -0.00003793  0.23D-06  0.10D-06  5  5    24.50     4.07
   6      1.12893904    -0.45344759  -115.55352480     0.00000235    -0.00000421  0.35D-07  0.95D-08  6  6    27.33     3.90
   7      1.12895010    -0.45344672  -115.55352393     0.00000087    -0.00000298  0.39D-08  0.14D-08  6  1    30.14     3.78
   8      1.12895188    -0.45344678  -115.55352399    -0.00000006     0.00000033  0.67D-09  0.20D-09  6  3    32.99     3.69

 Norm of t1 vector:      0.05000845      S-energy:     0.00000011      T1 diagnostic:  0.00945071
                                                                       D1 diagnostic:  0.02006710

 Adding energy correction from Wij-K(Fij), methodcc=6  factor= 1.0

  CCSD correlation energy              -0.453446782117
  MP2-F12 correction (uncoupled)       -0.038542271876
  C*T doubles correction               -0.001164072480
  f12b correction                       0.007098366939


 Total CPU time for triples:     36.68 sec


 RESULTS
 =======

  Reference energy                   -115.098723211152
  F12 singles correction               -0.001353993551

 F12 singles corrections added to reference energy

  New reference energy               -115.100077204703

  F12a singlet correction              -0.035788801426
  F12a triplet correction              -0.003917542930
  F12a total correction                -0.039706344356

 F12a corrections for ansatz F12/3C(FIX) added to CCSD energy

  CCSD-F12a singlet pair energy        -0.351219031339
  CCSD-F12a triplet pair energy        -0.141934204804
  CCSD-F12a correlation energy         -0.493153126473

  Triples (T) contribution             -0.016020454789
  Total correlation energy             -0.509173581262

  CCSD-F12a total energy             -115.593230331176
  CCSD[T]-F12a energy                -115.609803965878
  CCSD-T-F12a energy                 -115.609007045307
 !CCSD(T)-F12a total energy          -115.609250785965

 F12b corrections for ansatz F12/3C(FIX) added to CCSD(T)-F12a energy

  CCSD-F12b singlet pair energy        -0.344582685710
  CCSD-F12b triplet pair energy        -0.141472183493
  CCSD-F12b correlation energy         -0.486054759533

  Triples (T) contribution             -0.016020454789
  Total correlation energy             -0.502075214323

  CCSD-F12b total energy             -115.586131964237
  CCSD[T]-F12b energy                -115.602705598939
  CCSD-T-F12b energy                 -115.601908678367
 !CCSD(T)-F12b total energy          -115.602152419026

 Timing summary (sec):

 STEP                 CPU(USER)    SYS     CPU(TOT)    WALL
 Transformation          3.32      0.87      4.19      6.52
 CCSD iterations        23.12      2.48     25.60     29.73
 Triples                36.68      1.06     37.74     37.89
 MP2-F12                 6.57      0.55      7.12      7.15
 F12b energy             2.32      0.14      2.46      2.48

 Program statistics:

 Available memory in ccsd:               499999646
 Min. memory needed in ccsd:               2228017
 Max. memory used in ccsd:                 2807120
 Max. memory used in cckext:               2027429 ( 9 integral passes)



 **********************************************************************************************************************************
 DATASETS  * FILE   NREC   LENGTH (MB)   RECORD NAMES
              1      20      706.98       500      610      700      900      950      970     1000      129      960     1100   
                                          VAR    BASINP    GEOM    SYMINP    ZMAT    AOBASIS   BASIS     P2S    ABASIS      S 
                                         1400     1410     1200     1210     1080     1600     1650     1300     1700     1380   
                                           T        V       H0       H01     AOSYM     SMH    MOLCAS    ERIS     OPER     JKOP   

              2       7        4.13       700     1000      520     2100     7360     7350     7000   
                                         GEOM     BASIS   MCVARS     RHF    F12ABS    EF12   

 PROGRAMS   *        TOTAL   CCSD(T)   MP2-F12    HF-SCF       INT
 CPU TIMES  *        97.70     72.04      8.21      7.91      9.41
 REAL TIME  *       185.17 SEC
 DISK USED  *         2.15 GB
 **********************************************************************************************************************************
 SETTING XXX            =    "MMM"
 SETTING POINT          =        68.00000000                                  

 *** ### CH3OH


 XXX       RCO          ROH          RCH1         RCH2         RCH3           ACOH           AOCH1          AOCH2          AOCH3         AHH1           AHH2           AHH3            ENERGY       POINT
 "MMM"   1.42077677   0.96013932   1.09171752   1.08440070   1.09171752   108.12930637   112.65221523   107.18733878   111.65221523   61.43364279   180.00000000   298.56635721   -115.60925079   68.0000
                                                  

 CCSD(T)-F12/cc-pVTZ-F12 energy=   -115.602152419026

     CCSD(T)-F12         MP2-F12          HF-SCF
   -115.60215242   -115.58373511   -115.09872321
 **********************************************************************************************************************************
 Molpro calculation terminated
