
 Primary working directories    : /tmpdir/job/2955604.undefined/molpro.Ixy2Ljh7um
 Secondary working directories  : /tmpdir/job/2955604.undefined/molpro.Ixy2Ljh7um
 Wavefunction directory         : /home/zcaposm/wfu/
 Main file repository           : /tmpdir/job/2955604.undefined/molpro.Ixy2Ljh7um/

 id        : uclcc

 Nodes                         nprocs
 node-d00a-245.myriad.ucl.ac.uk    1

 Using customized tuning parameters: mindgm=1; mindgv=20; mindgc=4; mindgr=1; noblas=0; minvec=7
 default implementation of scratch files=df  


 Variables initialized (945), CPU time= 0.01 sec
 ***,Methanol Ground State Energy with CCSD(T)-F12 and cc-pVTZ-F12
 memory,500,m;
 
 geometry={angstrom
 c
 o , 1, rco
 h , 2, roh, 1, acoh
 h1, 1, rch1, 2, aoch1  3  ahh1
 h2, 1, rch2, 2, aoch2, 3, ahh2
 h3, 1, rch3, 2, aoch3, 3, ahh3
 }
 
                                                ! Specify the initial values of the internal coordinates (in Angstroms and degrees)
 
 rco= 1.42077677
 roh= 0.96013932
 rch1= 1.091717515605
 rch2= 1.07940070258
 rch3= 1.091717515605
 acoh= 108.12930637
 aoch1= 111.6522152299
 aoch2= 107.18733878260001
 aoch3= 111.6522152299
 ahh1=61.43364279
 ahh2=180.0
 ahh3=298.56635721
 
                                                                                 ! Use the cc-pVTZ-F12 basis set
 basis=cc-pVTZ-F12
 
 hf
 
                                                                                 ! Use explicitly correlated F12 methods
                                                                            ! First, MP2-F12 (useful for initial electronic energy)
 {mp2-f12}
 
                                                                        ! If desired, perform CCSD(T)-F12 for more accurate results
 {ccsd(t)-f12}
 
                                                                                 ! Output the energy
 xxx = "mmm"
 point = 39
 text ### CH3OH
 table,xxx,rco,roh,rch1,rch2,rch3,acoh,aoch1,aoch2,aoch3,ahh1,ahh2,ahh3,energy,point
 DIGITS, 0, 8, 8, 8, 8, 8, 8, 8, 8, 8,  8,  8,  8, 8, 4
 save,CH3OH_MEP_MP2_39.dat,new
 
 Commands  initialized (802), CPU time= 0.01 sec, 659 directives.
 Default parameters read. Elapsed time= 0.08 sec

 Checking input...
 Passed
1


                                         ***  PROGRAM SYSTEM MOLPRO  ***
                                       Copyright, TTI GmbH Stuttgart, 2015
                                    Version 2020.1 linked Oct  6 2020 12:04:11


 **********************************************************************************************************************************
 LABEL *   Methanol Ground State Energy with CCSD(T)-F12 and cc-pVTZ-F12                 
  64 bit serial version                                                                  DATE: 08-Oct-24          TIME: 17:15:51  
 **********************************************************************************************************************************

 SHA1:             8c27446f6450a7499e38f603e13c65f775101d37
 **********************************************************************************************************************************

 Memory per process:       500 MW
 Total memory per node:    500 MW

 GA preallocation disabled
 GA check disabled

 Variable memory set to 500.0 MW

 SETTING RCO            =         1.42077677                                  
 SETTING ROH            =         0.96013932                                  
 SETTING RCH1           =         1.09171752                                  
 SETTING RCH2           =         1.07940070                                  
 SETTING RCH3           =         1.09171752                                  
 SETTING ACOH           =       108.12930637                                  
 SETTING AOCH1          =       111.65221523                                  
 SETTING AOCH2          =       107.18733878                                  
 SETTING AOCH3          =       111.65221523                                  
 SETTING AHH1           =        61.43364279                                  
 SETTING AHH2           =       180.00000000                                  
 SETTING AHH3           =       298.56635721                                  
 SETTING BASIS          =    CC-PVTZ-F12


 Recomputing integrals since basis changed


 Using spherical harmonics

 Library entry C      S cc-pVTZ-F12          selected for orbital group  1
 Library entry C      P cc-pVTZ-F12          selected for orbital group  1
 Library entry C      D cc-pVTZ-F12          selected for orbital group  1
 Library entry C      F cc-pVTZ-F12          selected for orbital group  1
 Library entry O      S cc-pVTZ-F12          selected for orbital group  2
 Library entry O      P cc-pVTZ-F12          selected for orbital group  2
 Library entry O      D cc-pVTZ-F12          selected for orbital group  2
 Library entry O      F cc-pVTZ-F12          selected for orbital group  2
 Library entry H      S cc-pVTZ-F12          selected for orbital group  3
 Library entry H      P cc-pVTZ-F12          selected for orbital group  3
 Library entry H      D cc-pVTZ-F12          selected for orbital group  3


 PROGRAM * SEWARD (Integral evaluation for generally contracted gaussian basis sets)     Author: Roland Lindh, 1990

 Geometry written to block  1 of record 700

 Orientation using atomic masses  
 Molecule type: Asymmetric top
 Symmetry elements: X
 Rotational constants:      23.9737046     24.8128722    129.0929031 GHz  (calculated with average atomic masses)

 Point group  Cs  



 ATOMIC COORDINATES

 NR  ATOM    CHARGE       X              Y              Z

   1  C       6.00    0.000000000    0.024322671   -1.376705657
   2  O       8.00    0.000000000   -0.121776102    1.304195364
   3  H       1.00    0.000000000    1.569275146    1.961762341
   4  H1      1.00    1.684053272    0.981278802   -2.086890787
   5  H3      1.00   -1.684053272    0.981278802   -2.086890787
   6  H2      1.00    0.000000000   -1.888674463   -2.084597300

 Bond lengths in Bohr (Angstrom)

 1-2  2.684878979  1-4  2.063047110  1-5  2.063047110  1-6  2.039771707  2-3  1.814400356
     ( 1.420776770)     ( 1.091717516)     ( 1.091717516)     ( 1.079400703)     ( 0.960139320)

 Bond angles

  1-2-3  108.12930637   2-1-4  111.65221523   2-1-5  111.65221523   2-1-6  107.18733878

  4-1-5  109.43105099   4-1-6  108.39459424   5-1-6  108.39459424

 NUCLEAR CHARGE:                   18
 NUMBER OF PRIMITIVE AOS:         228
 NUMBER OF SYMMETRY AOS:          206
 NUMBER OF CONTRACTIONS:          178   (  114A'  +   64A"  )
 NUMBER OF INNER CORE ORBITALS:     0   (    0A'  +    0A"  )
 NUMBER OF OUTER CORE ORBITALS:     2   (    2A'  +    0A"  )
 NUMBER OF VALENCE ORBITALS:       12   (    9A'  +    3A"  )


 NUCLEAR REPULSION ENERGY   40.36459386

 Eigenvalues of metric

         1 0.875E-04 0.183E-03 0.307E-03 0.460E-03 0.493E-03 0.558E-03 0.617E-03 0.621E-03
         2 0.323E-03 0.570E-03 0.686E-03 0.177E-02 0.338E-02 0.494E-02 0.639E-02 0.869E-02


 Contracted 2-electron integrals neglected if value below      1.0D-11
 AO integral compression algorithm  1   Integral accuracy      1.0D-11

     331.612 MB (compressed) written to integral file ( 53.5%)


 NUMBER OF SORTED TWO-ELECTRON INTEGRALS:   64554730.     BUFFER LENGTH:  32768
 NUMBER OF SEGMENTS:   5  SEGMENT LENGTH:   15997996      RECORD LENGTH: 524288

 Memory used in sort:      16.56 MW

 SORT1 READ    77497885. AND WROTE    63556318. INTEGRALS IN    184 RECORDS. CPU TIME:     2.04 SEC, REAL TIME:   116.03 SEC
 SORT2 READ    63556318. AND WROTE    64554730. INTEGRALS IN   1265 RECORDS. CPU TIME:     1.46 SEC, REAL TIME:   276.64 SEC

 FILE SIZES:   FILE 1:   362.5 MBYTE,  FILE 4:   771.8 MBYTE,   TOTAL:   1134.3 MBYTE

 OPERATOR DM      FOR CENTER  0  COORDINATES:    0.000000    0.000000    0.000000


 **********************************************************************************************************************************
 DATASETS  * FILE   NREC   LENGTH (MB)   RECORD NAMES
              1      19      311.88       500      610      700      900      950      970     1000      129      960     1100   
                                          VAR    BASINP    GEOM    SYMINP    ZMAT    AOBASIS   BASIS     P2S    ABASIS      S 
                                         1400     1410     1200     1210     1080     1600     1650     1300     1700   
                                           T        V       H0       H01     AOSYM     SMH    MOLCAS    ERIS     OPER   

 PROGRAMS   *        TOTAL       INT
 CPU TIMES  *         7.06      6.95
 REAL TIME  *       513.75 SEC
 DISK USED  *         1.13 GB
 **********************************************************************************************************************************


 PROGRAM * RHF-SCF (CLOSED SHELL)       Authors: W. Meyer, H.-J. Werner


 NUMBER OF ELECTRONS:       9+    9-
 CONVERGENCE THRESHOLDS:    1.00E-05 (Density)    1.00E-07 (Energy)
 MAX. NUMBER OF ITERATIONS:       60
 INTERPOLATION TYPE:            DIIS
 INTERPOLATION STEPS:              2 (START)      1 (STEP)
 LEVEL SHIFTS:                  0.00 (CLOSED)  0.00 (OPEN) 



 Orbital guess generated from atomic densities. Full valence occupancy:   11   3

 Molecular orbital dump at record        2100.2

 Initial occupancy:   7   2

 ITERATION    DDIFF          GRAD             ENERGY        2-EL.EN.            DIPOLE MOMENTS         DIIS   ORB.
    1      0.000D+00      0.000D+00      -115.06239667    164.522409    0.00000    0.90524   -0.47827    0    start
    2      0.000D+00      0.668D-02      -115.09075885    161.936436    0.00000    0.49562   -0.30476    1    diag
    3      0.653D-02      0.365D-02      -115.09822934    163.200820    0.00000    0.59874   -0.39790    2    diag
    4      0.222D-02      0.721D-03      -115.09876204    163.024080    0.00000    0.59340   -0.39339    3    diag
    5      0.593D-03      0.145D-03      -115.09879649    163.035365    0.00000    0.58933   -0.39825    4    diag
    6      0.165D-03      0.271D-04      -115.09879805    163.033265    0.00000    0.58945   -0.39904    5    diag
    7      0.475D-04      0.577D-05      -115.09879813    163.032811    0.00000    0.58927   -0.39932    6    diag
    8      0.119D-04      0.155D-05      -115.09879813    163.033191    0.00000    0.58925   -0.39935    7    diag
    9      0.240D-05      0.487D-06      -115.09879813    163.033022    0.00000    0.58923   -0.39936    0    orth

 Final occupancy:   7   2

 !RHF STATE  1.1 Energy              -115.098798130670
 Nuclear energy                        40.36459386
 One-electron energy                 -236.97990312
 Two-electron energy                   81.51651112
 Virial quotient                       -1.00095085
 !RHF STATE  1.1 Dipole moment          0.00000000     0.58923364    -0.39935811
 Dipole moment /Debye                   0.00000000     1.49758444    -1.01500057

 Orbital energies:

         1.1          2.1          3.1          4.1          5.1          6.1          7.1          8.1          9.1
    -20.556268   -11.269148    -1.356873    -0.926975    -0.690800    -0.595024    -0.504767     0.054662     0.064984

         1.2          2.2          3.2          4.2
     -0.621488    -0.452097     0.073795     0.181501


 HOMO      2.2    -0.452097 =     -12.3022eV
 LUMO      8.1     0.054662 =       1.4874eV
 LUMO-HOMO         0.506760 =      13.7896eV


 **********************************************************************************************************************************
 DATASETS  * FILE   NREC   LENGTH (MB)   RECORD NAMES
              1      19      311.88       500      610      700      900      950      970     1000      129      960     1100   
                                          VAR    BASINP    GEOM    SYMINP    ZMAT    AOBASIS   BASIS     P2S    ABASIS      S 
                                         1400     1410     1200     1210     1080     1600     1650     1300     1700   
                                           T        V       H0       H01     AOSYM     SMH    MOLCAS    ERIS     OPER   

              2       4        3.18       700     1000      520     2100   
                                         GEOM     BASIS   MCVARS     RHF  

 PROGRAMS   *        TOTAL    HF-SCF       INT
 CPU TIMES  *         9.70      2.63      6.95
 REAL TIME  *       546.74 SEC
 DISK USED  *         1.13 GB
 **********************************************************************************************************************************


 PROGRAM * MP2 (Closed-shell)     Authors: C. Hampel, H.-J. Werner, 1991, M. Deegan, P.J. Knowles, 1992

                                   MP2-F12 implementation by H.-J. Werner, 2007

                   Density fitting integral evaluation by F.R. Manby, 2003,2007, G. Knizia, 2010


 Basis set AUG-CC-PVTZ/JKFIT generated.  Number of basis functions:   392 
 Basis set CC-PVTZ-F12/OPTRI generated.  Number of basis functions:   314 
 Basis set AUG-CC-PVTZ/MP2FIT generated. Number of basis functions:   396 

 Convergence thresholds:  THRVAR = 1.00D-08  THRDEN = 1.00D-06

 Number of core orbitals:           2 (   2   0 )
 Number of closed-shell orbitals:   7 (   5   2 )
 Number of external orbitals:     169 ( 107  62 )

 Molecular orbitals read from record     2100.2  Type=RHF/CANONICAL (state 1.1)

 MP2-F12 correlation treatment (H.-J. Werner, 2006)
 ==================================================

 Using MP2-F12 with ansatz 3C(FIX)

 Using projected zeroth-order Hamiltonian (+Z)

 FOCKRIB=T FOCKRIC=T FOCKRIP=T CABSP=T CABSA=T CABSK=T CABSF=T GBC=F EBC=F DMAT=T NOFIK=T NOPAO=1 SOLVE=-1  USEPAO=0
 EXCH_A= T EXCH_B= F EXCH_C= F EXCH_P= F

 Geminal basis:    OPTFULL  GEM_TYPE=SLATER  BETA=1.0  NGEM=6

 Optimizing Gaussian exponents for each gem_beta

 Geminal optimization for beta= 1.0000
 Weight function:   m=0, omega= 1.4646

 Augmented Hessian optimization of geminal fit. Trust ratio= 0.40000
 Convergence reached after   2 iterations. Final gradient= 8.66D-16, Step= 4.23D-06, Delta= 1.28D-09

 Alpha:                 0.19532     0.81920     2.85917     9.50073    35.69989   197.79328
 Coeff:                 0.27070     0.30552     0.18297     0.10986     0.06810     0.04224


 Symmetry turned off. Reference energy:       -115.098798130670

 All pairs explicitly correlated. Number of r12-pairs:           28

 Excluding core orbitals from MO domains

 AO(A)-basis ORBITAL           loaded. Number of functions:     178
 RI(R)-basis CC-PVTZ-F12/OPTRI loaded. Number of functions:     314
 DF-basis AUG-CC-PVTZ/JKFIT    loaded. Number of functions:     392

 Screening thresholds:   THRAO=  1.00D-10  THRMO=  1.00D-09  THRPROD=  1.00D-09
                         THRSW=  1.00D-05  THROV=  1.00D-12  THRAOF12= 1.00D-08

 CPU time for Fock operators                      4.38 sec

 Construction of ABS:
 Smallest eigenvalue of S          4.34E-04  (threshold= 1.00E-08)
 Ratio eigmin/eigmax               5.54E-05  (threshold= 1.00E-09)
 Smallest eigenvalue of S kept     4.34E-04  (threshold= 4.34E-04, 0 functions deleted, 314 kept)

 Construction of CABS:
 Smallest eigenvalue of S          7.19E-07  (threshold= 1.00E-08)
 Ratio eigmin/eigmax               7.19E-07  (threshold= 1.00E-09)
 Smallest eigenvalue of S kept     7.19E-07  (threshold= 7.19E-07, 0 functions deleted, 314 kept)

 CPU time for CABS singles                        0.04 sec

 CABS-singles contribution of  -0.00135537 patched into reference energy.
 New reference energy        -115.10015350

 AO(A)-basis ORBITAL           loaded. Number of functions:     178
 RI(R)-basis CC-PVTZ-F12/OPTRI loaded. Number of functions:     314
 DF-basis AUG-CC-PVTZ/MP2FIT   loaded. Number of functions:     396

 Screening thresholds:   THRAO=  1.00D-10  THRMO=  1.00D-09  THRPROD=  1.00D-09
                         THRSW=  1.00D-05  THROV=  1.00D-12  THRAOF12= 1.00D-08

 CPU time for 3-index integral evaluation         3.05 sec
 CPU time for first  half transformation          0.34 sec ( 7261.9 MFLOP/sec)
 CPU time for second half transformation          0.01 sec ( 6217.0 MFLOP/sec)
 CPU time for sorting                             0.02 sec
 CPU time for fitting                             0.02 sec (56971.3 MFLOP/sec)
 CPU time for tilde quantities                    0.01 sec (******* MFLOP/sec)
 CPU time for assembly                            0.16 sec (77210.0 MFLOP/sec)
 CPU time for tranop_f12                          0.20 sec (79301.1 MFLOP/sec)
 CPU time for f12 integrals (total)               6.08 sec, Elapsed time:      6.41 sec
 CPU time for f12 matrices (total)                0.08 sec, Elapsed time:      0.11 sec

 Diagonal F12 approximation with fixed coefficients:  TSING= 0.500,  TTRIP= 0.250 (scaled by -1/beta)

 DF-MP2-F12 energy corrections:
 ==============================
 Approx.                                    Singlet             Triplet             Total
 DF-MP2-F12/3*C(DX,FIX)                -0.038297221448     -0.004213843814     -0.042511065262
 DF-MP2-F12/3*C(FIX)                   -0.036096156741     -0.003931808984     -0.040027965725
 DF-MP2-F12/3C(FIX)                    -0.036038794283     -0.004066739641     -0.040105533923

 DF-MP2-F12 correlation energies:
 ================================
 Approx.                                    Singlet             Triplet             Ecorr            Total Energy
 DF-MP2                                -0.291055974134     -0.152362573585     -0.443418547719   -115.543572052152
 DF-MP2-F12/3*C(DX,FIX)                -0.329353195582     -0.156576417400     -0.485929612981   -115.586083117414
 DF-MP2-F12/3*C(FIX)                   -0.327152130875     -0.156294382569     -0.483446513444   -115.583600017877
 DF-MP2-F12/3C(FIX)                    -0.327094768417     -0.156429313226     -0.483524081643   -115.583677586076

 SCS-DF-MP2 energies (F_SING= 1.20000  F_TRIP= 0.62222  F_PARALLEL= 0.33333):
 ============================================================================
 SCS-DF-MP2                            -0.444070548080   -115.544224052513
 SCS-DF-MP2-F12/3*C(DX,FIX)            -0.492649161080   -115.592802665513
 SCS-DF-MP2-F12/3*C(FIX)               -0.489832395093   -115.589985899526
 SCS-DF-MP2-F12/3C(FIX)                -0.489847516996   -115.590001021429

 Symmetry restored.
 Symmetry transformation completed.

 Number of N-1 electron functions:               7
 Number of N-2 electron functions:              28
 Number of singly external CSFs:               659
 Number of doubly external CSFs:            355020
 Total number of CSFs:                      355680

 Length of J-op  integral file:             103.49 MB
 Length of K-op  integral file:             127.95 MB

 Integral transformation finished. Total CPU:   0.38 sec, npass=  1  Memory used:   0.67 MW

 ITER.      SQ.NORM     CORR.ENERGY   TOTAL ENERGY   ENERGY CHANGE     VAR   MIC
   1      1.00000000    -0.44348489  -115.54363839    -0.44348489  0.00D+00   0
   2      1.11465209    -0.44348489  -115.54363839     0.00000000 -0.54D-16   0

 Solving MP2-F12 equations

   1      1.11461587    -0.48283246  -115.58298596    -0.03934757 -0.37D-04   0
   2      1.11461587    -0.48358902  -115.58374252    -0.00075656 -0.16D-17   0
   3      1.11461587    -0.48358902  -115.58374252     0.00000000  0.25D-18   0

 CPU TIME FOR ITERATIVE MP2:    0.03 SEC


 MP2-F12 energy corrections:
 ===========================
 Approx.                                    Singlet             Triplet             Total
 MP2-F12/3*C(DX,FIX)                   -0.038297221448     -0.004213843814     -0.042511065262
 MP2-F12/3*C(FIX)                      -0.036096156741     -0.003931808984     -0.040027965725
 MP2-F12/3C(FIX)                       -0.036036094599     -0.004068038970     -0.040104133569

 MP2-F12 correlation energies:
 =============================
 Approx.                                    Singlet             Triplet             Ecorr            Total Energy
 MP2                                   -0.291239244380     -0.152245642495     -0.443484886875   -115.543638391307
 MP2-F12/3*C(DX,FIX)                   -0.329536465828     -0.156459486309     -0.485995952136   -115.586149456569
 MP2-F12/3*C(FIX)                      -0.327335401121     -0.156177451479     -0.483512852600   -115.583666357032
 MP2-F12/3C(FIX)                       -0.327275338979     -0.156313681464     -0.483589020443   -115.583742524876

 SCS-MP2 energies (F_SING= 1.20000  F_TRIP= 0.62222  F_PARALLEL= 0.33333):
 =========================================================================
 SCS-MP2                               -0.444217715253   -115.544371219685
 SCS-MP2-F12/3*C(DX,FIX)               -0.492796328252   -115.592949832685
 SCS-MP2-F12/3*C(FIX)                  -0.489979562265   -115.590133066698
 SCS-MP2-F12/3C(FIX)                   -0.489992253019   -115.590145757452


  Reference energy                   -115.098798130670
  F12 singles correction               -0.001355373763

 F12 singles corrections added to reference energy

  New reference energy               -115.100153504433

  F12/3C(F) singlet correction         -0.036036094599
  F12/3C(F) triplet correction         -0.004068038970
  F12/3C(F) total correction           -0.040104133569
  MP2-F12/3C(F) singlet pair energy    -0.327275338979
  MP2-F12/3C(F) triplet pair energy    -0.156313681464
  MP2-F12/3C(F) correlation energy     -0.483589020443

 !MP2-F12/3C(F) total energy         -115.583742524876


 **********************************************************************************************************************************
 DATASETS  * FILE   NREC   LENGTH (MB)   RECORD NAMES
              1      20      317.63       500      610      700      900      950      970     1000      129      960     1100   
                                          VAR    BASINP    GEOM    SYMINP    ZMAT    AOBASIS   BASIS     P2S    ABASIS      S 
                                         1400     1410     1200     1210     1080     1600     1650     1300     1700     1380   
                                           T        V       H0       H01     AOSYM     SMH    MOLCAS    ERIS     OPER     JKOP   

              2       7        3.55       700     1000      520     2100     7360     7350     7000   
                                         GEOM     BASIS   MCVARS     RHF    F12ABS    EF12   

 PROGRAMS   *        TOTAL   MP2-F12    HF-SCF       INT
 CPU TIMES  *        20.90     11.20      2.63      6.95
 REAL TIME  *       562.15 SEC
 DISK USED  *         1.13 GB
 **********************************************************************************************************************************


 PROGRAM * CCSD (Closed-shell coupled cluster)     Authors: C. Hampel, H.-J. Werner, 1991, M. Deegan, P.J. Knowles, 1992

                                  CCSD-F12 implementation by  H.-J. Werner, 2007

                   Density fitting integral evaluation by F.R. Manby, 2003,2007, G. Knizia, 2010



 Convergence thresholds:  THRVAR = 1.00D-08  THRDEN = 1.00D-06

 CCSD(T)     terms to be evaluated (factor= 1.000)


 Number of core orbitals:           2 (   2   0 )
 Number of closed-shell orbitals:   7 (   5   2 )
 Number of external orbitals:     169 ( 107  62 )

 Molecular orbitals read from record     2100.2  Type=RHF/CANONICAL (state 1.1)

 MP2-F12 correlation treatment (H.-J. Werner, 2006)
 ==================================================

 Using MP2-F12 with ansatz 3C(FIX)

 Using projected zeroth-order Hamiltonian (+Z)

 FOCKRIB=T FOCKRIC=T FOCKRIP=T CABSP=T CABSA=T CABSK=T CABSF=T GBC=F EBC=F DMAT=T NOFIK=T NOPAO=1 SOLVE=-1  USEPAO=0
 EXCH_A= T EXCH_B= F EXCH_C= F EXCH_P= F

 Geminal basis:    OPTFULL  GEM_TYPE=SLATER  BETA=1.0  NGEM=6

 Optimizing Gaussian exponents for each gem_beta

 Geminal optimization for beta= 1.0000
 Weight function:   m=0, omega= 1.4646

 Augmented Hessian optimization of geminal fit. Trust ratio= 0.40000
 Convergence reached after   2 iterations. Final gradient= 8.66D-16, Step= 4.23D-06, Delta= 1.28D-09

 Alpha:                 0.19532     0.81920     2.85917     9.50073    35.69989   197.79328
 Coeff:                 0.27070     0.30552     0.18297     0.10986     0.06810     0.04224


 Symmetry turned off. Reference energy:       -115.098798130670

 All pairs explicitly correlated. Number of r12-pairs:           28

 Excluding core orbitals from MO domains

 AO(A)-basis ORBITAL           loaded. Number of functions:     178
 RI(R)-basis CC-PVTZ-F12/OPTRI loaded. Number of functions:     314
 DF-basis AUG-CC-PVTZ/JKFIT    loaded. Number of functions:     392

 Screening thresholds:   THRAO=  1.00D-10  THRMO=  1.00D-09  THRPROD=  1.00D-09
                         THRSW=  1.00D-05  THROV=  1.00D-12  THRAOF12= 1.00D-08

 CPU time for Fock operators                      4.50 sec

 Construction of ABS:
 Smallest eigenvalue of S          4.34E-04  (threshold= 1.00E-08)
 Ratio eigmin/eigmax               5.54E-05  (threshold= 1.00E-09)
 Smallest eigenvalue of S kept     4.34E-04  (threshold= 4.34E-04, 0 functions deleted, 314 kept)

 Construction of CABS:
 Smallest eigenvalue of S          7.19E-07  (threshold= 1.00E-08)
 Ratio eigmin/eigmax               7.19E-07  (threshold= 1.00E-09)
 Smallest eigenvalue of S kept     7.19E-07  (threshold= 7.19E-07, 0 functions deleted, 314 kept)

 CPU time for CABS singles                        0.03 sec

 CABS-singles contribution of  -0.00135537 patched into reference energy.
 New reference energy        -115.10015350

 AO(A)-basis ORBITAL           loaded. Number of functions:     178
 RI(R)-basis CC-PVTZ-F12/OPTRI loaded. Number of functions:     314
 DF-basis AUG-CC-PVTZ/MP2FIT   loaded. Number of functions:     396

 Screening thresholds:   THRAO=  1.00D-10  THRMO=  1.00D-09  THRPROD=  1.00D-09
                         THRSW=  1.00D-05  THROV=  1.00D-12  THRAOF12= 1.00D-08

 CPU time for 3-index integral evaluation         3.05 sec
 CPU time for first  half transformation          0.23 sec (10735.0 MFLOP/sec)
 CPU time for sorting                             0.02 sec
 CPU time for fitting                             0.03 sec (37980.8 MFLOP/sec)
 CPU time for tilde quantities                    0.03 sec (50348.4 MFLOP/sec)
 CPU time for assembly                            0.14 sec (88240.0 MFLOP/sec)
 CPU time for tranop_f12                          0.20 sec (79301.1 MFLOP/sec)
 CPU time for f12 integrals (total)               5.98 sec, Elapsed time:      6.30 sec
 CPU time for f12 matrices (total)                0.08 sec, Elapsed time:      0.10 sec

 Diagonal F12 approximation with fixed coefficients:  TSING= 0.500,  TTRIP= 0.250 (scaled by -1/beta)

 DF-MP2-F12 energy corrections:
 ==============================
 Approx.                                    Singlet             Triplet             Total
 DF-MP2-F12/3*C(DX,FIX)                -0.038297221448     -0.004213843814     -0.042511065262
 DF-MP2-F12/3*C(FIX)                   -0.036096156741     -0.003931808984     -0.040027965725
 DF-MP2-F12/3C(FIX)                    -0.036038794283     -0.004066739641     -0.040105533923

 DF-MP2-F12 correlation energies:
 ================================
 Approx.                                    Singlet             Triplet             Ecorr            Total Energy
 DF-MP2                                -0.291055974134     -0.152362573585     -0.443418547719   -115.543572052152
 DF-MP2-F12/3*C(DX,FIX)                -0.329353195582     -0.156576417400     -0.485929612981   -115.586083117414
 DF-MP2-F12/3*C(FIX)                   -0.327152130875     -0.156294382569     -0.483446513444   -115.583600017877
 DF-MP2-F12/3C(FIX)                    -0.327094768417     -0.156429313226     -0.483524081643   -115.583677586076

 SCS-DF-MP2 energies (F_SING= 1.20000  F_TRIP= 0.62222  F_PARALLEL= 0.33333):
 ============================================================================
 SCS-DF-MP2                            -0.444070548080   -115.544224052513
 SCS-DF-MP2-F12/3*C(DX,FIX)            -0.492649161080   -115.592802665513
 SCS-DF-MP2-F12/3*C(FIX)               -0.489832395093   -115.589985899526
 SCS-DF-MP2-F12/3C(FIX)                -0.489847516996   -115.590001021429

 Symmetry restored.
 Symmetry transformation completed.

 Number of N-1 electron functions:               7
 Number of N-2 electron functions:              28
 Number of singly external CSFs:               659
 Number of doubly external CSFs:            355020
 Total number of CSFs:                      355680

 Length of J-op  integral file:             103.62 MB
 Length of K-op  integral file:             127.95 MB
 Length of 3-ext integral record:             0.00 MB

 Memory could be reduced to 24.20 Mwords without degradation in triples

 Integral transformation finished. Total CPU:   0.94 sec, npass=  1  Memory used:   7.45 MW

 Reference energy:                   -115.10015350

 Adding F12 terms to K(Cij), methodcc=6,  factor= 1.0

 ITER.      SQ.NORM     CORR.ENERGY   TOTAL ENERGY   ENERGY CHANGE        DEN1      VAR(S)    VAR(P)  DIIS     TIME  TIME/IT
   1      1.11752502    -0.45281065  -115.55296415    -0.00932576     0.00166328  0.15D-02  0.19D-02  1  1    12.20     0.69
   2      1.12491900    -0.45316958  -115.55332308    -0.00035893    -0.00903683  0.24D-04  0.23D-03  2  2    12.84     0.70
   3      1.12763884    -0.45334619  -115.55349970    -0.00017662    -0.00186037  0.15D-04  0.13D-04  3  3    13.49     0.72
   4      1.12858286    -0.45336408  -115.55351758    -0.00001789    -0.00059857  0.86D-06  0.12D-05  4  4    14.20     0.73
   5      1.12873809    -0.45336560  -115.55351910    -0.00000152    -0.00003784  0.23D-06  0.10D-06  5  5    14.94     0.75
   6      1.12878061    -0.45336324  -115.55351674     0.00000236    -0.00000422  0.36D-07  0.96D-08  6  6    15.57     0.75
   7      1.12879175    -0.45336236  -115.55351587     0.00000087    -0.00000298  0.40D-08  0.14D-08  6  1    16.20     0.74
   8      1.12879355    -0.45336243  -115.55351593    -0.00000006     0.00000034  0.67D-09  0.20D-09  6  3    16.82     0.74

 Norm of t1 vector:      0.04997725      S-energy:    -0.00000037      T1 diagnostic:  0.00944481
                                                                       D1 diagnostic:  0.02004046

 Adding energy correction from Wij-K(Fij), methodcc=6  factor= 1.0

  CCSD correlation energy              -0.453362426981
  MP2-F12 correction (uncoupled)       -0.038554249719
  C*T doubles correction               -0.001164707924
  f12b correction                       0.007098735037


 Total CPU time for triples:     10.11 sec


 RESULTS
 =======

  Reference energy                   -115.098798130670
  F12 singles correction               -0.001355373763

 F12 singles corrections added to reference energy

  New reference energy               -115.100153504433

  F12a singlet correction              -0.035799478102
  F12a triplet correction              -0.003919479541
  F12a total correction                -0.039718957643

 F12a corrections for ansatz F12/3C(FIX) added to CCSD energy

  CCSD-F12a singlet pair energy        -0.351153064088
  CCSD-F12a triplet pair energy        -0.141927954883
  CCSD-F12a correlation energy         -0.493081384624

  Triples (T) contribution             -0.016003784362
  Total correlation energy             -0.509085168986

  CCSD-F12a total energy             -115.593234889056
  CCSD[T]-F12a energy                -115.609790736445
  CCSD-T-F12a energy                 -115.608995407836
 !CCSD(T)-F12a total energy          -115.609238673419

 F12b corrections for ansatz F12/3C(FIX) added to CCSD(T)-F12a energy

  CCSD-F12b singlet pair energy        -0.344516526104
  CCSD-F12b triplet pair energy        -0.141465757829
  CCSD-F12b correlation energy         -0.485982649586

  Triples (T) contribution             -0.016003784362
  Total correlation energy             -0.501986433949

  CCSD-F12b total energy             -115.586136154019
  CCSD[T]-F12b energy                -115.602692001408
  CCSD-T-F12b energy                 -115.601896672799
 !CCSD(T)-F12b total energy          -115.602139938381

 Timing summary (sec):

 STEP                 CPU(USER)    SYS     CPU(TOT)    WALL
 Transformation          0.96      0.27      1.23      1.60
 CCSD iterations         5.21      0.68      5.89      6.02
 Triples                10.11      0.45     10.56     10.58
 MP2-F12                10.65      0.48     11.13     11.27
 F12b energy             0.49      0.06      0.55      0.55

 Program statistics:

 Available memory in ccsd:               499999650
 Min. memory needed in ccsd:               1149135
 Max. memory used in ccsd:                 1443104
 Max. memory used in cckext:               1888566 ( 9 integral passes)



 **********************************************************************************************************************************
 DATASETS  * FILE   NREC   LENGTH (MB)   RECORD NAMES
              1      20      386.19       500      610      700      900      950      970     1000      129      960     1100   
                                          VAR    BASINP    GEOM    SYMINP    ZMAT    AOBASIS   BASIS     P2S    ABASIS      S 
                                         1400     1410     1200     1210     1080     1600     1650     1300     1700     1380   
                                           T        V       H0       H01     AOSYM     SMH    MOLCAS    ERIS     OPER     JKOP   

              2       7        3.55       700     1000      520     2100     7360     7350     7000   
                                         GEOM     BASIS   MCVARS     RHF    F12ABS    EF12   

 PROGRAMS   *        TOTAL   CCSD(T)   MP2-F12    HF-SCF       INT
 CPU TIMES  *        48.35     27.45     11.20      2.63      6.95
 REAL TIME  *       592.23 SEC
 DISK USED  *         1.13 GB
 **********************************************************************************************************************************
 SETTING XXX            =    "MMM"
 SETTING POINT          =        39.00000000                                  

 *** ### CH3OH


 XXX       RCO          ROH          RCH1         RCH2         RCH3           ACOH           AOCH1          AOCH2          AOCH3         AHH1           AHH2           AHH3            ENERGY       POINT
 "MMM"   1.42077677   0.96013932   1.09171752   1.07940070   1.09171752   108.12930637   111.65221523   107.18733878   111.65221523   61.43364279   180.00000000   298.56635721   -115.60923867   39.0000
                                                  

 CCSD(T)-F12/cc-pVTZ-F12 energy=   -115.602139938381

     CCSD(T)-F12         MP2-F12          HF-SCF
   -115.60213994   -115.58374252   -115.09879813
 **********************************************************************************************************************************
 Molpro calculation terminated
