
 Primary working directories    : /tmpdir/job/2955565.undefined/molpro.IwWiNK5KBM
 Secondary working directories  : /tmpdir/job/2955565.undefined/molpro.IwWiNK5KBM
 Wavefunction directory         : /home/zcaposm/wfu/
 Main file repository           : /tmpdir/job/2955565.undefined/molpro.IwWiNK5KBM/

 id        : uclcc

 Nodes                         nprocs
 node-d00a-158.myriad.ucl.ac.uk    1

 Using customized tuning parameters: mindgm=1; mindgv=20; mindgc=4; mindgr=1; noblas=0; minvec=7
 default implementation of scratch files=df  


 Variables initialized (945), CPU time= 0.00 sec
 ***,Methanol Ground State Energy with CCSD(T)-F12 and cc-pVTZ-F12
 memory,500,m;
 
 geometry={angstrom
 c
 o , 1, rco
 h , 2, roh, 1, acoh
 h1, 1, rch1, 2, aoch1  3  ahh1
 h2, 1, rch2, 2, aoch2, 3, ahh2
 h3, 1, rch3, 2, aoch3, 3, ahh3
 }
 
                                                ! Specify the initial values of the internal coordinates (in Angstroms and degrees)
 
 rco= 1.4157767700000001
 roh= 0.96013932
 rch1= 1.091717515605
 rch2= 1.08440070258
 rch3= 1.091717515605
 acoh= 108.12930637
 aoch1= 111.6522152299
 aoch2= 107.18733878260001
 aoch3= 111.6522152299
 ahh1=61.43364279
 ahh2=180.0
 ahh3=298.56635721
 
                                                                                 ! Use the cc-pVTZ-F12 basis set
 basis=cc-pVTZ-F12
 
 hf
 
                                                                                 ! Use explicitly correlated F12 methods
                                                                            ! First, MP2-F12 (useful for initial electronic energy)
 {mp2-f12}
 
                                                                        ! If desired, perform CCSD(T)-F12 for more accurate results
 {ccsd(t)-f12}
 
                                                                                 ! Output the energy
 xxx = "mmm"
 point = 3
 text ### CH3OH
 table,xxx,rco,roh,rch1,rch2,rch3,acoh,aoch1,aoch2,aoch3,ahh1,ahh2,ahh3,energy,point
 DIGITS, 0, 8, 8, 8, 8, 8, 8, 8, 8, 8,  8,  8,  8, 8, 4
 save,CH3OH_MEP_MP2_3.dat,new
 
 Commands  initialized (802), CPU time= 0.01 sec, 659 directives.
 Default parameters read. Elapsed time= 0.10 sec

 Checking input...
 Passed
1


                                         ***  PROGRAM SYSTEM MOLPRO  ***
                                       Copyright, TTI GmbH Stuttgart, 2015
                                    Version 2020.1 linked Oct  6 2020 12:04:11


 **********************************************************************************************************************************
 LABEL *   Methanol Ground State Energy with CCSD(T)-F12 and cc-pVTZ-F12                 
  64 bit serial version                                                                  DATE: 08-Oct-24          TIME: 17:11:33  
 **********************************************************************************************************************************

 SHA1:             8c27446f6450a7499e38f603e13c65f775101d37
 **********************************************************************************************************************************

 Memory per process:       500 MW
 Total memory per node:    500 MW

 GA preallocation disabled
 GA check disabled

 Variable memory set to 500.0 MW

 SETTING RCO            =         1.41577677                                  
 SETTING ROH            =         0.96013932                                  
 SETTING RCH1           =         1.09171752                                  
 SETTING RCH2           =         1.08440070                                  
 SETTING RCH3           =         1.09171752                                  
 SETTING ACOH           =       108.12930637                                  
 SETTING AOCH1          =       111.65221523                                  
 SETTING AOCH2          =       107.18733878                                  
 SETTING AOCH3          =       111.65221523                                  
 SETTING AHH1           =        61.43364279                                  
 SETTING AHH2           =       180.00000000                                  
 SETTING AHH3           =       298.56635721                                  
 SETTING BASIS          =    CC-PVTZ-F12


 Recomputing integrals since basis changed


 Using spherical harmonics

 Library entry C      S cc-pVTZ-F12          selected for orbital group  1
 Library entry C      P cc-pVTZ-F12          selected for orbital group  1
 Library entry C      D cc-pVTZ-F12          selected for orbital group  1
 Library entry C      F cc-pVTZ-F12          selected for orbital group  1
 Library entry O      S cc-pVTZ-F12          selected for orbital group  2
 Library entry O      P cc-pVTZ-F12          selected for orbital group  2
 Library entry O      D cc-pVTZ-F12          selected for orbital group  2
 Library entry O      F cc-pVTZ-F12          selected for orbital group  2
 Library entry H      S cc-pVTZ-F12          selected for orbital group  3
 Library entry H      P cc-pVTZ-F12          selected for orbital group  3
 Library entry H      D cc-pVTZ-F12          selected for orbital group  3


 PROGRAM * SEWARD (Integral evaluation for generally contracted gaussian basis sets)     Author: Roland Lindh, 1990

 Geometry written to block  1 of record 700

 Orientation using atomic masses  
 Molecule type: Asymmetric top
 Symmetry elements: X
 Rotational constants:      24.0963408     24.9557942    128.7850617 GHz  (calculated with average atomic masses)

 Point group  Cs  



 ATOMIC COORDINATES

 NR  ATOM    CHARGE       X              Y              Z

   1  C       6.00    0.000000000    0.025269774   -1.371577774
   2  O       8.00    0.000000000   -0.122148113    1.299788078
   3  H       1.00    0.000000000    1.568451480    1.958515388
   4  H1      1.00    1.684053272    0.982713045   -2.081106024
   5  H3      1.00   -1.684053272    0.982713045   -2.081106024
   6  H2      1.00    0.000000000   -1.896100251   -2.084067225

 Bond lengths in Bohr (Angstrom)

 1-2  2.675430349  1-4  2.063047110  1-5  2.063047110  1-6  2.049220337  2-3  1.814400356
     ( 1.415776770)     ( 1.091717516)     ( 1.091717516)     ( 1.084400703)     ( 0.960139320)

 Bond angles

  1-2-3  108.12930637   2-1-4  111.65221523   2-1-5  111.65221523   2-1-6  107.18733878

  4-1-5  109.43105099   4-1-6  108.39459424   5-1-6  108.39459424

 NUCLEAR CHARGE:                   18
 NUMBER OF PRIMITIVE AOS:         228
 NUMBER OF SYMMETRY AOS:          206
 NUMBER OF CONTRACTIONS:          178   (  114A'  +   64A"  )
 NUMBER OF INNER CORE ORBITALS:     0   (    0A'  +    0A"  )
 NUMBER OF OUTER CORE ORBITALS:     2   (    2A'  +    0A"  )
 NUMBER OF VALENCE ORBITALS:       12   (    9A'  +    3A"  )


 NUCLEAR REPULSION ENERGY   40.42644181

 Eigenvalues of metric

         1 0.877E-04 0.183E-03 0.309E-03 0.459E-03 0.492E-03 0.559E-03 0.616E-03 0.621E-03
         2 0.322E-03 0.570E-03 0.686E-03 0.177E-02 0.338E-02 0.490E-02 0.643E-02 0.868E-02


 Contracted 2-electron integrals neglected if value below      1.0D-11
 AO integral compression algorithm  1   Integral accuracy      1.0D-11

     331.874 MB (compressed) written to integral file ( 53.5%)


 NUMBER OF SORTED TWO-ELECTRON INTEGRALS:   64554730.     BUFFER LENGTH:  32768
 NUMBER OF SEGMENTS:   5  SEGMENT LENGTH:   15997996      RECORD LENGTH: 524288

 Memory used in sort:      16.56 MW

 SORT1 READ    77497885. AND WROTE    63557145. INTEGRALS IN    184 RECORDS. CPU TIME:     0.88 SEC, REAL TIME:     6.56 SEC
 SORT2 READ    63557145. AND WROTE    64554730. INTEGRALS IN   1266 RECORDS. CPU TIME:     1.26 SEC, REAL TIME:    74.80 SEC

 FILE SIZES:   FILE 1:   362.8 MBYTE,  FILE 4:   771.8 MBYTE,   TOTAL:   1134.6 MBYTE

 OPERATOR DM      FOR CENTER  0  COORDINATES:    0.000000    0.000000    0.000000


 **********************************************************************************************************************************
 DATASETS  * FILE   NREC   LENGTH (MB)   RECORD NAMES
              1      19      311.97       500      610      700      900      950      970     1000      129      960     1100   
                                          VAR    BASINP    GEOM    SYMINP    ZMAT    AOBASIS   BASIS     P2S    ABASIS      S 
                                         1400     1410     1200     1210     1080     1600     1650     1300     1700   
                                           T        V       H0       H01     AOSYM     SMH    MOLCAS    ERIS     OPER   

 PROGRAMS   *        TOTAL       INT
 CPU TIMES  *         5.73      5.62
 REAL TIME  *       121.76 SEC
 DISK USED  *         1.13 GB
 **********************************************************************************************************************************


 PROGRAM * RHF-SCF (CLOSED SHELL)       Authors: W. Meyer, H.-J. Werner


 NUMBER OF ELECTRONS:       9+    9-
 CONVERGENCE THRESHOLDS:    1.00E-05 (Density)    1.00E-07 (Energy)
 MAX. NUMBER OF ITERATIONS:       60
 INTERPOLATION TYPE:            DIIS
 INTERPOLATION STEPS:              2 (START)      1 (STEP)
 LEVEL SHIFTS:                  0.00 (CLOSED)  0.00 (OPEN) 



 Orbital guess generated from atomic densities. Full valence occupancy:   11   3

 Molecular orbital dump at record        2100.2

 Initial occupancy:   7   2

 ITERATION    DDIFF          GRAD             ENERGY        2-EL.EN.            DIPOLE MOMENTS         DIIS   ORB.
    1      0.000D+00      0.000D+00      -115.06252000    164.640917    0.00000    0.90423   -0.46796    0    start
    2      0.000D+00      0.668D-02      -115.09090194    162.051707    0.00000    0.49664   -0.29666    1    diag
    3      0.653D-02      0.364D-02      -115.09833744    163.315803    0.00000    0.59987   -0.38900    2    diag
    4      0.221D-02      0.720D-03      -115.09886944    163.138846    0.00000    0.59469   -0.38465    3    diag
    5      0.594D-03      0.145D-03      -115.09890379    163.150330    0.00000    0.59070   -0.38950    4    diag
    6      0.165D-03      0.270D-04      -115.09890535    163.148161    0.00000    0.59084   -0.39029    5    diag
    7      0.476D-04      0.576D-05      -115.09890542    163.147757    0.00000    0.59066   -0.39057    6    diag
    8      0.120D-04      0.152D-05      -115.09890543    163.148118    0.00000    0.59064   -0.39060    7    diag
    9      0.239D-05      0.478D-06      -115.09890543    163.147952    0.00000    0.59063   -0.39060    0    orth

 Final occupancy:   7   2

 !RHF STATE  1.1 Energy              -115.098905428611
 Nuclear energy                        40.42644181
 One-electron energy                 -237.09932310
 Two-electron energy                   81.57397586
 Virial quotient                       -1.00092567
 !RHF STATE  1.1 Dipole moment          0.00000000     0.59062989    -0.39060318
 Dipole moment /Debye                   0.00000000     1.50113311    -0.99274923

 Orbital energies:

         1.1          2.1          3.1          4.1          5.1          6.1          7.1          8.1          9.1
    -20.556322   -11.269222    -1.358735    -0.926138    -0.691901    -0.595488    -0.503839     0.054635     0.065080

         1.2          2.2          3.2          4.2
     -0.622358    -0.451684     0.073795     0.181398


 HOMO      2.2    -0.451684 =     -12.2909eV
 LUMO      8.1     0.054635 =       1.4867eV
 LUMO-HOMO         0.506318 =      13.7776eV


 **********************************************************************************************************************************
 DATASETS  * FILE   NREC   LENGTH (MB)   RECORD NAMES
              1      19      311.97       500      610      700      900      950      970     1000      129      960     1100   
                                          VAR    BASINP    GEOM    SYMINP    ZMAT    AOBASIS   BASIS     P2S    ABASIS      S 
                                         1400     1410     1200     1210     1080     1600     1650     1300     1700   
                                           T        V       H0       H01     AOSYM     SMH    MOLCAS    ERIS     OPER   

              2       4        3.18       700     1000      520     2100   
                                         GEOM     BASIS   MCVARS     RHF  

 PROGRAMS   *        TOTAL    HF-SCF       INT
 CPU TIMES  *         8.76      3.03      5.62
 REAL TIME  *       131.43 SEC
 DISK USED  *         1.13 GB
 **********************************************************************************************************************************


 PROGRAM * MP2 (Closed-shell)     Authors: C. Hampel, H.-J. Werner, 1991, M. Deegan, P.J. Knowles, 1992

                                   MP2-F12 implementation by H.-J. Werner, 2007

                   Density fitting integral evaluation by F.R. Manby, 2003,2007, G. Knizia, 2010


 Basis set AUG-CC-PVTZ/JKFIT generated.  Number of basis functions:   392 
 Basis set CC-PVTZ-F12/OPTRI generated.  Number of basis functions:   314 
 Basis set AUG-CC-PVTZ/MP2FIT generated. Number of basis functions:   396 

 Convergence thresholds:  THRVAR = 1.00D-08  THRDEN = 1.00D-06

 Number of core orbitals:           2 (   2   0 )
 Number of closed-shell orbitals:   7 (   5   2 )
 Number of external orbitals:     169 ( 107  62 )

 Molecular orbitals read from record     2100.2  Type=RHF/CANONICAL (state 1.1)

 MP2-F12 correlation treatment (H.-J. Werner, 2006)
 ==================================================

 Using MP2-F12 with ansatz 3C(FIX)

 Using projected zeroth-order Hamiltonian (+Z)

 FOCKRIB=T FOCKRIC=T FOCKRIP=T CABSP=T CABSA=T CABSK=T CABSF=T GBC=F EBC=F DMAT=T NOFIK=T NOPAO=1 SOLVE=-1  USEPAO=0
 EXCH_A= T EXCH_B= F EXCH_C= F EXCH_P= F

 Geminal basis:    OPTFULL  GEM_TYPE=SLATER  BETA=1.0  NGEM=6

 Optimizing Gaussian exponents for each gem_beta

 Geminal optimization for beta= 1.0000
 Weight function:   m=0, omega= 1.4646

 Augmented Hessian optimization of geminal fit. Trust ratio= 0.40000
 Convergence reached after   2 iterations. Final gradient= 8.66D-16, Step= 4.23D-06, Delta= 1.28D-09

 Alpha:                 0.19532     0.81920     2.85917     9.50073    35.69989   197.79328
 Coeff:                 0.27070     0.30552     0.18297     0.10986     0.06810     0.04224


 Symmetry turned off. Reference energy:       -115.098905428611

 All pairs explicitly correlated. Number of r12-pairs:           28

 Excluding core orbitals from MO domains

 AO(A)-basis ORBITAL           loaded. Number of functions:     178
 RI(R)-basis CC-PVTZ-F12/OPTRI loaded. Number of functions:     314
 DF-basis AUG-CC-PVTZ/JKFIT    loaded. Number of functions:     392

 Screening thresholds:   THRAO=  1.00D-10  THRMO=  1.00D-09  THRPROD=  1.00D-09
                         THRSW=  1.00D-05  THROV=  1.00D-12  THRAOF12= 1.00D-08

 CPU time for Fock operators                      5.48 sec

 Construction of ABS:
 Smallest eigenvalue of S          4.33E-04  (threshold= 1.00E-08)
 Ratio eigmin/eigmax               5.52E-05  (threshold= 1.00E-09)
 Smallest eigenvalue of S kept     4.33E-04  (threshold= 4.33E-04, 0 functions deleted, 314 kept)

 Construction of CABS:
 Smallest eigenvalue of S          7.18E-07  (threshold= 1.00E-08)
 Ratio eigmin/eigmax               7.18E-07  (threshold= 1.00E-09)
 Smallest eigenvalue of S kept     7.18E-07  (threshold= 7.18E-07, 0 functions deleted, 314 kept)

 CPU time for CABS singles                        0.04 sec

 CABS-singles contribution of  -0.00135647 patched into reference energy.
 New reference energy        -115.10026189

 AO(A)-basis ORBITAL           loaded. Number of functions:     178
 RI(R)-basis CC-PVTZ-F12/OPTRI loaded. Number of functions:     314
 DF-basis AUG-CC-PVTZ/MP2FIT   loaded. Number of functions:     396

 Screening thresholds:   THRAO=  1.00D-10  THRMO=  1.00D-09  THRPROD=  1.00D-09
                         THRSW=  1.00D-05  THROV=  1.00D-12  THRAOF12= 1.00D-08

 CPU time for 3-index integral evaluation         3.44 sec
 CPU time for first  half transformation          0.18 sec (13717.0 MFLOP/sec)
 CPU time for fitting                             0.01 sec (******* MFLOP/sec)
 CPU time for tilde quantities                    0.03 sec (50348.4 MFLOP/sec)
 CPU time for assembly                            0.21 sec (58826.6 MFLOP/sec)
 CPU time for tranop_f12                          0.26 sec (61000.9 MFLOP/sec)
 CPU time for f12 integrals (total)               7.08 sec, Elapsed time:      7.56 sec
 CPU time for f12 matrices (total)                0.11 sec, Elapsed time:      0.20 sec

 Diagonal F12 approximation with fixed coefficients:  TSING= 0.500,  TTRIP= 0.250 (scaled by -1/beta)

 DF-MP2-F12 energy corrections:
 ==============================
 Approx.                                    Singlet             Triplet             Total
 DF-MP2-F12/3*C(DX,FIX)                -0.038301505382     -0.004217600484     -0.042519105865
 DF-MP2-F12/3*C(FIX)                   -0.036097670480     -0.003934651901     -0.040032322381
 DF-MP2-F12/3C(FIX)                    -0.036039818853     -0.004069635784     -0.040109454637

 DF-MP2-F12 correlation energies:
 ================================
 Approx.                                    Singlet             Triplet             Ecorr            Total Energy
 DF-MP2                                -0.290976642228     -0.152342435012     -0.443319077240   -115.543580970892
 DF-MP2-F12/3*C(DX,FIX)                -0.329278147610     -0.156560035495     -0.485838183106   -115.586100076758
 DF-MP2-F12/3*C(FIX)                   -0.327074312708     -0.156277086913     -0.483351399621   -115.583613293273
 DF-MP2-F12/3C(FIX)                    -0.327016461082     -0.156412070795     -0.483428531877   -115.583690425529

 SCS-DF-MP2 energies (F_SING= 1.20000  F_TRIP= 0.62222  F_PARALLEL= 0.33333):
 ============================================================================
 SCS-DF-MP2                            -0.443962819126   -115.544224712778
 SCS-DF-MP2-F12/3*C(DX,FIX)            -0.492548910329   -115.592810803982
 SCS-DF-MP2-F12/3*C(FIX)               -0.489728251551   -115.589990145203
 SCS-DF-MP2-F12/3C(FIX)                -0.489742819571   -115.590004713223

 Symmetry restored.
 Symmetry transformation completed.

 Number of N-1 electron functions:               7
 Number of N-2 electron functions:              28
 Number of singly external CSFs:               659
 Number of doubly external CSFs:            355020
 Total number of CSFs:                      355680

 Length of J-op  integral file:             103.49 MB
 Length of K-op  integral file:             127.95 MB

 Integral transformation finished. Total CPU:   0.49 sec, npass=  1  Memory used:   0.67 MW

 ITER.      SQ.NORM     CORR.ENERGY   TOTAL ENERGY   ENERGY CHANGE     VAR   MIC
   1      1.00000000    -0.44338533  -115.54364722    -0.44338533  0.00D+00   0
   2      1.11453989    -0.44338533  -115.54364722    -0.00000000  0.63D-15   0

 Solving MP2-F12 equations

   1      1.11450368    -0.48273728  -115.58299917    -0.03935195 -0.37D-04   0
   2      1.11450368    -0.48349338  -115.58375527    -0.00075610 -0.19D-17   0
   3      1.11450368    -0.48349338  -115.58375527     0.00000000  0.15D-19   0

 CPU TIME FOR ITERATIVE MP2:    0.03 SEC


 MP2-F12 energy corrections:
 ===========================
 Approx.                                    Singlet             Triplet             Total
 MP2-F12/3*C(DX,FIX)                   -0.038301505382     -0.004217600484     -0.042519105865
 MP2-F12/3*C(FIX)                      -0.036097670480     -0.003934651901     -0.040032322381
 MP2-F12/3C(FIX)                       -0.036037106470     -0.004070943617     -0.040108050087

 MP2-F12 correlation energies:
 =============================
 Approx.                                    Singlet             Triplet             Ecorr            Total Energy
 MP2                                   -0.291160234129     -0.152225096779     -0.443385330908   -115.543647224560
 MP2-F12/3*C(DX,FIX)                   -0.329461739510     -0.156442697263     -0.485904436773   -115.586166330425
 MP2-F12/3*C(FIX)                      -0.327257904608     -0.156159748680     -0.483417653289   -115.583679546941
 MP2-F12/3C(FIX)                       -0.327197340598     -0.156296040397     -0.483493380995   -115.583755274647

 SCS-MP2 energies (F_SING= 1.20000  F_TRIP= 0.62222  F_PARALLEL= 0.33333):
 =========================================================================
 SCS-MP2                               -0.444110118950   -115.544372012603
 SCS-MP2-F12/3*C(DX,FIX)               -0.492696210154   -115.592958103806
 SCS-MP2-F12/3*C(FIX)                  -0.489875551376   -115.590137445028
 SCS-MP2-F12/3C(FIX)                   -0.489887678298   -115.590149571950


  Reference energy                   -115.098905428611
  F12 singles correction               -0.001356465041

 F12 singles corrections added to reference energy

  New reference energy               -115.100261893652

  F12/3C(F) singlet correction         -0.036037106470
  F12/3C(F) triplet correction         -0.004070943617
  F12/3C(F) total correction           -0.040108050087
  MP2-F12/3C(F) singlet pair energy    -0.327197340598
  MP2-F12/3C(F) triplet pair energy    -0.156296040397
  MP2-F12/3C(F) correlation energy     -0.483493380995

 !MP2-F12/3C(F) total energy         -115.583755274647


 **********************************************************************************************************************************
 DATASETS  * FILE   NREC   LENGTH (MB)   RECORD NAMES
              1      20      317.71       500      610      700      900      950      970     1000      129      960     1100   
                                          VAR    BASINP    GEOM    SYMINP    ZMAT    AOBASIS   BASIS     P2S    ABASIS      S 
                                         1400     1410     1200     1210     1080     1600     1650     1300     1700     1380   
                                           T        V       H0       H01     AOSYM     SMH    MOLCAS    ERIS     OPER     JKOP   

              2       7        3.55       700     1000      520     2100     7360     7350     7000   
                                         GEOM     BASIS   MCVARS     RHF    F12ABS    EF12   

 PROGRAMS   *        TOTAL   MP2-F12    HF-SCF       INT
 CPU TIMES  *        22.20     13.43      3.03      5.62
 REAL TIME  *       149.44 SEC
 DISK USED  *         1.13 GB
 **********************************************************************************************************************************


 PROGRAM * CCSD (Closed-shell coupled cluster)     Authors: C. Hampel, H.-J. Werner, 1991, M. Deegan, P.J. Knowles, 1992

                                  CCSD-F12 implementation by  H.-J. Werner, 2007

                   Density fitting integral evaluation by F.R. Manby, 2003,2007, G. Knizia, 2010



 Convergence thresholds:  THRVAR = 1.00D-08  THRDEN = 1.00D-06

 CCSD(T)     terms to be evaluated (factor= 1.000)


 Number of core orbitals:           2 (   2   0 )
 Number of closed-shell orbitals:   7 (   5   2 )
 Number of external orbitals:     169 ( 107  62 )

 Molecular orbitals read from record     2100.2  Type=RHF/CANONICAL (state 1.1)

 MP2-F12 correlation treatment (H.-J. Werner, 2006)
 ==================================================

 Using MP2-F12 with ansatz 3C(FIX)

 Using projected zeroth-order Hamiltonian (+Z)

 FOCKRIB=T FOCKRIC=T FOCKRIP=T CABSP=T CABSA=T CABSK=T CABSF=T GBC=F EBC=F DMAT=T NOFIK=T NOPAO=1 SOLVE=-1  USEPAO=0
 EXCH_A= T EXCH_B= F EXCH_C= F EXCH_P= F

 Geminal basis:    OPTFULL  GEM_TYPE=SLATER  BETA=1.0  NGEM=6

 Optimizing Gaussian exponents for each gem_beta

 Geminal optimization for beta= 1.0000
 Weight function:   m=0, omega= 1.4646

 Augmented Hessian optimization of geminal fit. Trust ratio= 0.40000
 Convergence reached after   2 iterations. Final gradient= 8.66D-16, Step= 4.23D-06, Delta= 1.28D-09

 Alpha:                 0.19532     0.81920     2.85917     9.50073    35.69989   197.79328
 Coeff:                 0.27070     0.30552     0.18297     0.10986     0.06810     0.04224


 Symmetry turned off. Reference energy:       -115.098905428611

 All pairs explicitly correlated. Number of r12-pairs:           28

 Excluding core orbitals from MO domains

 AO(A)-basis ORBITAL           loaded. Number of functions:     178
 RI(R)-basis CC-PVTZ-F12/OPTRI loaded. Number of functions:     314
 DF-basis AUG-CC-PVTZ/JKFIT    loaded. Number of functions:     392

 Screening thresholds:   THRAO=  1.00D-10  THRMO=  1.00D-09  THRPROD=  1.00D-09
                         THRSW=  1.00D-05  THROV=  1.00D-12  THRAOF12= 1.00D-08

 CPU time for Fock operators                      5.45 sec

 Construction of ABS:
 Smallest eigenvalue of S          4.33E-04  (threshold= 1.00E-08)
 Ratio eigmin/eigmax               5.52E-05  (threshold= 1.00E-09)
 Smallest eigenvalue of S kept     4.33E-04  (threshold= 4.33E-04, 0 functions deleted, 314 kept)

 Construction of CABS:
 Smallest eigenvalue of S          7.18E-07  (threshold= 1.00E-08)
 Ratio eigmin/eigmax               7.18E-07  (threshold= 1.00E-09)
 Smallest eigenvalue of S kept     7.18E-07  (threshold= 7.18E-07, 0 functions deleted, 314 kept)

 CPU time for CABS singles                        0.04 sec

 CABS-singles contribution of  -0.00135647 patched into reference energy.
 New reference energy        -115.10026189

 AO(A)-basis ORBITAL           loaded. Number of functions:     178
 RI(R)-basis CC-PVTZ-F12/OPTRI loaded. Number of functions:     314
 DF-basis AUG-CC-PVTZ/MP2FIT   loaded. Number of functions:     396

 Screening thresholds:   THRAO=  1.00D-10  THRMO=  1.00D-09  THRPROD=  1.00D-09
                         THRSW=  1.00D-05  THROV=  1.00D-12  THRAOF12= 1.00D-08

 CPU time for 3-index integral evaluation         3.44 sec
 CPU time for first  half transformation          0.18 sec (13717.0 MFLOP/sec)
 CPU time for second half transformation          0.03 sec ( 2072.3 MFLOP/sec)
 CPU time for fitting                             0.02 sec (56971.3 MFLOP/sec)
 CPU time for tilde quantities                    0.03 sec (50348.4 MFLOP/sec)
 CPU time for assembly                            0.20 sec (61768.0 MFLOP/sec)
 CPU time for tranop_f12                          0.25 sec (63440.9 MFLOP/sec)
 CPU time for f12 integrals (total)               7.06 sec, Elapsed time:      7.44 sec
 CPU time for f12 matrices (total)                0.10 sec, Elapsed time:      0.13 sec

 Diagonal F12 approximation with fixed coefficients:  TSING= 0.500,  TTRIP= 0.250 (scaled by -1/beta)

 DF-MP2-F12 energy corrections:
 ==============================
 Approx.                                    Singlet             Triplet             Total
 DF-MP2-F12/3*C(DX,FIX)                -0.038301505382     -0.004217600484     -0.042519105865
 DF-MP2-F12/3*C(FIX)                   -0.036097670480     -0.003934651901     -0.040032322381
 DF-MP2-F12/3C(FIX)                    -0.036039818853     -0.004069635784     -0.040109454637

 DF-MP2-F12 correlation energies:
 ================================
 Approx.                                    Singlet             Triplet             Ecorr            Total Energy
 DF-MP2                                -0.290976642228     -0.152342435012     -0.443319077240   -115.543580970892
 DF-MP2-F12/3*C(DX,FIX)                -0.329278147610     -0.156560035495     -0.485838183106   -115.586100076758
 DF-MP2-F12/3*C(FIX)                   -0.327074312708     -0.156277086913     -0.483351399621   -115.583613293273
 DF-MP2-F12/3C(FIX)                    -0.327016461082     -0.156412070795     -0.483428531877   -115.583690425529

 SCS-DF-MP2 energies (F_SING= 1.20000  F_TRIP= 0.62222  F_PARALLEL= 0.33333):
 ============================================================================
 SCS-DF-MP2                            -0.443962819126   -115.544224712778
 SCS-DF-MP2-F12/3*C(DX,FIX)            -0.492548910329   -115.592810803982
 SCS-DF-MP2-F12/3*C(FIX)               -0.489728251551   -115.589990145203
 SCS-DF-MP2-F12/3C(FIX)                -0.489742819571   -115.590004713223

 Symmetry restored.
 Symmetry transformation completed.

 Number of N-1 electron functions:               7
 Number of N-2 electron functions:              28
 Number of singly external CSFs:               659
 Number of doubly external CSFs:            355020
 Total number of CSFs:                      355680

 Length of J-op  integral file:             103.62 MB
 Length of K-op  integral file:             127.95 MB
 Length of 3-ext integral record:             0.00 MB

 Memory could be reduced to 24.20 Mwords without degradation in triples

 Integral transformation finished. Total CPU:   1.16 sec, npass=  1  Memory used:   7.45 MW

 Reference energy:                   -115.10026189

 Adding F12 terms to K(Cij), methodcc=6,  factor= 1.0

 ITER.      SQ.NORM     CORR.ENERGY   TOTAL ENERGY   ENERGY CHANGE        DEN1      VAR(S)    VAR(P)  DIIS     TIME  TIME/IT
   1      1.11745508    -0.45273756  -115.55299945    -0.00935223     0.00161541  0.15D-02  0.19D-02  1  1    14.72     0.89
   2      1.12483858    -0.45310172  -115.55336361    -0.00036416    -0.00902286  0.24D-04  0.23D-03  2  2    15.56     0.91
   3      1.12755589    -0.45327831  -115.55354021    -0.00017659    -0.00186055  0.15D-04  0.13D-04  3  3    16.39     0.91
   4      1.12849631    -0.45329625  -115.55355814    -0.00001793    -0.00059668  0.86D-06  0.12D-05  4  4    17.22     0.91
   5      1.12865034    -0.45329774  -115.55355964    -0.00000150    -0.00003748  0.23D-06  0.10D-06  5  5    18.06     0.92
   6      1.12869240    -0.45329542  -115.55355731     0.00000232    -0.00000414  0.35D-07  0.95D-08  6  6    18.89     0.92
   7      1.12870341    -0.45329455  -115.55355644     0.00000087    -0.00000296  0.39D-08  0.14D-08  6  1    19.73     0.92
   8      1.12870519    -0.45329461  -115.55355650    -0.00000006     0.00000033  0.66D-09  0.20D-09  6  3    20.54     0.92

 Norm of t1 vector:      0.04988399      S-energy:    -0.00000036      T1 diagnostic:  0.00942719
                                                                       D1 diagnostic:  0.01998605

 Adding energy correction from Wij-K(Fij), methodcc=6  factor= 1.0

  CCSD correlation energy              -0.453294609123
  MP2-F12 correction (uncoupled)       -0.038559984113
  C*T doubles correction               -0.001163628595
  f12b correction                       0.007096886409


 Total CPU time for triples:     11.53 sec


 RESULTS
 =======

  Reference energy                   -115.098905428611
  F12 singles correction               -0.001356465041

 F12 singles corrections added to reference energy

  New reference energy               -115.100261893652

  F12a singlet correction              -0.035801227304
  F12a triplet correction              -0.003922385405
  F12a total correction                -0.039723612709

 F12a corrections for ansatz F12/3C(FIX) added to CCSD energy

  CCSD-F12a singlet pair energy        -0.351072927517
  CCSD-F12a triplet pair energy        -0.141944930881
  CCSD-F12a correlation energy         -0.493018221832

  Triples (T) contribution             -0.015980268417
  Total correlation energy             -0.508998490249

  CCSD-F12a total energy             -115.593280115484
  CCSD[T]-F12a energy                -115.609810203696
  CCSD-T-F12a energy                 -115.609018515194
 !CCSD(T)-F12a total energy          -115.609260383901

 F12b corrections for ansatz F12/3C(FIX) added to CCSD(T)-F12a energy

  CCSD-F12b singlet pair energy        -0.344438352652
  CCSD-F12b triplet pair energy        -0.141482619338
  CCSD-F12b correlation energy         -0.485921335423

  Triples (T) contribution             -0.015980268417
  Total correlation energy             -0.501901603839

  CCSD-F12b total energy             -115.586183229075
  CCSD[T]-F12b energy                -115.602713317287
  CCSD-T-F12b energy                 -115.601921628784
 !CCSD(T)-F12b total energy          -115.602163497492

 Timing summary (sec):

 STEP                 CPU(USER)    SYS     CPU(TOT)    WALL
 Transformation          1.18      0.17      1.35      1.35
 CCSD iterations         6.64      0.71      7.35      7.38
 Triples                11.53      0.48     12.01     12.05
 MP2-F12                12.72      0.56     13.28     13.44
 F12b energy             0.68      0.06      0.74      0.73

 Program statistics:

 Available memory in ccsd:               499999650
 Min. memory needed in ccsd:               1149135
 Max. memory used in ccsd:                 1443104
 Max. memory used in cckext:               1888566 ( 9 integral passes)



 **********************************************************************************************************************************
 DATASETS  * FILE   NREC   LENGTH (MB)   RECORD NAMES
              1      20      386.28       500      610      700      900      950      970     1000      129      960     1100   
                                          VAR    BASINP    GEOM    SYMINP    ZMAT    AOBASIS   BASIS     P2S    ABASIS      S 
                                         1400     1410     1200     1210     1080     1600     1650     1300     1700     1380   
                                           T        V       H0       H01     AOSYM     SMH    MOLCAS    ERIS     OPER     JKOP   

              2       7        3.55       700     1000      520     2100     7360     7350     7000   
                                         GEOM     BASIS   MCVARS     RHF    F12ABS    EF12   

 PROGRAMS   *        TOTAL   CCSD(T)   MP2-F12    HF-SCF       INT
 CPU TIMES  *        54.98     32.77     13.43      3.03      5.62
 REAL TIME  *       184.46 SEC
 DISK USED  *         1.13 GB
 **********************************************************************************************************************************
 SETTING XXX            =    "MMM"
 SETTING POINT          =         3.00000000                                  

 *** ### CH3OH


 XXX       RCO          ROH          RCH1         RCH2         RCH3           ACOH           AOCH1          AOCH2          AOCH3         AHH1           AHH2           AHH3            ENERGY      POINT
 "MMM"   1.41577677   0.96013932   1.09171752   1.08440070   1.09171752   108.12930637   111.65221523   107.18733878   111.65221523   61.43364279   180.00000000   298.56635721   -115.60926038   3.0000
                                                  

 CCSD(T)-F12/cc-pVTZ-F12 energy=   -115.602163497492

     CCSD(T)-F12         MP2-F12          HF-SCF
   -115.60216350   -115.58375527   -115.09890543
 **********************************************************************************************************************************
 Molpro calculation terminated
