
 Primary working directories    : /tmpdir/job/2955623.undefined/molpro.Uxhtl0JaA2
 Secondary working directories  : /tmpdir/job/2955623.undefined/molpro.Uxhtl0JaA2
 Wavefunction directory         : /home/zcaposm/wfu/
 Main file repository           : /tmpdir/job/2955623.undefined/molpro.Uxhtl0JaA2/

 id        : uclcc

 Nodes                         nprocs
 node-d00a-061.myriad.ucl.ac.uk    1

 Using customized tuning parameters: mindgm=1; mindgv=20; mindgc=4; mindgr=1; noblas=0; minvec=7
 default implementation of scratch files=df  


 Variables initialized (945), CPU time= 0.01 sec
 ***,Methanol Ground State Energy with CCSD(T)-F12 and cc-pVTZ-F12
 memory,500,m;
 
 geometry={angstrom
 c
 o , 1, rco
 h , 2, roh, 1, acoh
 h1, 1, rch1, 2, aoch1  3  ahh1
 h2, 1, rch2, 2, aoch2, 3, ahh2
 h3, 1, rch3, 2, aoch3, 3, ahh3
 }
 
                                                ! Specify the initial values of the internal coordinates (in Angstroms and degrees)
 
 rco= 1.42077677
 roh= 0.96013932
 rch1= 1.091717515605
 rch2= 1.08440070258
 rch3= 1.091717515605
 acoh= 107.12930637
 aoch1= 111.6522152299
 aoch2= 107.18733878260001
 aoch3= 111.6522152299
 ahh1=61.43364279
 ahh2=180.0
 ahh3=298.56635721
 
                                                                                 ! Use the cc-pVTZ-F12 basis set
 basis=cc-pVTZ-F12
 
 hf
 
                                                                                 ! Use explicitly correlated F12 methods
                                                                            ! First, MP2-F12 (useful for initial electronic energy)
 {mp2-f12}
 
                                                                        ! If desired, perform CCSD(T)-F12 for more accurate results
 {ccsd(t)-f12}
 
                                                                                 ! Output the energy
 xxx = "mmm"
 point = 57
 text ### CH3OH
 table,xxx,rco,roh,rch1,rch2,rch3,acoh,aoch1,aoch2,aoch3,ahh1,ahh2,ahh3,energy,point
 DIGITS, 0, 8, 8, 8, 8, 8, 8, 8, 8, 8,  8,  8,  8, 8, 4
 save,CH3OH_MEP_MP2_57.dat,new
 
 Commands  initialized (802), CPU time= 0.01 sec, 659 directives.
 Default parameters read. Elapsed time= 0.09 sec

 Checking input...
 Passed
1


                                         ***  PROGRAM SYSTEM MOLPRO  ***
                                       Copyright, TTI GmbH Stuttgart, 2015
                                    Version 2020.1 linked Oct  6 2020 12:04:11


 **********************************************************************************************************************************
 LABEL *   Methanol Ground State Energy with CCSD(T)-F12 and cc-pVTZ-F12                 
  64 bit serial version                                                                  DATE: 08-Oct-24          TIME: 17:17:59  
 **********************************************************************************************************************************

 SHA1:             8c27446f6450a7499e38f603e13c65f775101d37
 **********************************************************************************************************************************

 Memory per process:       500 MW
 Total memory per node:    500 MW

 GA preallocation disabled
 GA check disabled

 Variable memory set to 500.0 MW

 SETTING RCO            =         1.42077677                                  
 SETTING ROH            =         0.96013932                                  
 SETTING RCH1           =         1.09171752                                  
 SETTING RCH2           =         1.08440070                                  
 SETTING RCH3           =         1.09171752                                  
 SETTING ACOH           =       107.12930637                                  
 SETTING AOCH1          =       111.65221523                                  
 SETTING AOCH2          =       107.18733878                                  
 SETTING AOCH3          =       111.65221523                                  
 SETTING AHH1           =        61.43364279                                  
 SETTING AHH2           =       180.00000000                                  
 SETTING AHH3           =       298.56635721                                  
 SETTING BASIS          =    CC-PVTZ-F12


 Recomputing integrals since basis changed


 Using spherical harmonics

 Library entry C      S cc-pVTZ-F12          selected for orbital group  1
 Library entry C      P cc-pVTZ-F12          selected for orbital group  1
 Library entry C      D cc-pVTZ-F12          selected for orbital group  1
 Library entry C      F cc-pVTZ-F12          selected for orbital group  1
 Library entry O      S cc-pVTZ-F12          selected for orbital group  2
 Library entry O      P cc-pVTZ-F12          selected for orbital group  2
 Library entry O      D cc-pVTZ-F12          selected for orbital group  2
 Library entry O      F cc-pVTZ-F12          selected for orbital group  2
 Library entry H      S cc-pVTZ-F12          selected for orbital group  3
 Library entry H      P cc-pVTZ-F12          selected for orbital group  3
 Library entry H      D cc-pVTZ-F12          selected for orbital group  3


 PROGRAM * SEWARD (Integral evaluation for generally contracted gaussian basis sets)     Author: Roland Lindh, 1990

 Geometry written to block  1 of record 700

 Orientation using atomic masses  
 Molecule type: Asymmetric top
 Symmetry elements: X
 Rotational constants:      23.9842299     24.8478786    128.4549205 GHz  (calculated with average atomic masses)

 Point group  Cs  



 ATOMIC COORDINATES

 NR  ATOM    CHARGE       X              Y              Z

   1  C       6.00    0.000000000    0.024246202   -1.375671019
   2  O       8.00    0.000000000   -0.121848050    1.305230248
   3  H       1.00    0.000000000    1.580422828    1.933181289
   4  H1      1.00    1.684053272    0.981201134   -2.085857763
   5  H3      1.00   -1.684053272    0.981201134   -2.085857763
   6  H2      1.00    0.000000000   -1.897613517   -2.086838517

 Bond lengths in Bohr (Angstrom)

 1-2  2.684878979  1-4  2.063047110  1-5  2.063047110  1-6  2.049220337  2-3  1.814400356
     ( 1.420776770)     ( 1.091717516)     ( 1.091717516)     ( 1.084400703)     ( 0.960139320)

 Bond angles

  1-2-3  107.12930637   2-1-4  111.65221523   2-1-5  111.65221523   2-1-6  107.18733878

  4-1-5  109.43105099   4-1-6  108.39459424   5-1-6  108.39459424

 NUCLEAR CHARGE:                   18
 NUMBER OF PRIMITIVE AOS:         228
 NUMBER OF SYMMETRY AOS:          206
 NUMBER OF CONTRACTIONS:          178   (  114A'  +   64A"  )
 NUMBER OF INNER CORE ORBITALS:     0   (    0A'  +    0A"  )
 NUMBER OF OUTER CORE ORBITALS:     2   (    2A'  +    0A"  )
 NUMBER OF VALENCE ORBITALS:       12   (    9A'  +    3A"  )


 NUCLEAR REPULSION ENERGY   40.35854680

 Eigenvalues of metric

         1 0.879E-04 0.185E-03 0.308E-03 0.460E-03 0.493E-03 0.559E-03 0.617E-03 0.622E-03
         2 0.323E-03 0.570E-03 0.686E-03 0.178E-02 0.339E-02 0.497E-02 0.643E-02 0.871E-02


 Contracted 2-electron integrals neglected if value below      1.0D-11
 AO integral compression algorithm  1   Integral accuracy      1.0D-11

     331.612 MB (compressed) written to integral file ( 53.5%)


 NUMBER OF SORTED TWO-ELECTRON INTEGRALS:   64554730.     BUFFER LENGTH:  32768
 NUMBER OF SEGMENTS:   5  SEGMENT LENGTH:   15997996      RECORD LENGTH: 524288

 Memory used in sort:      16.56 MW

 SORT1 READ    77497885. AND WROTE    63557180. INTEGRALS IN    184 RECORDS. CPU TIME:     1.18 SEC, REAL TIME:    12.01 SEC
 SORT2 READ    63557180. AND WROTE    64554730. INTEGRALS IN   1265 RECORDS. CPU TIME:     1.25 SEC, REAL TIME:    13.83 SEC

 FILE SIZES:   FILE 1:   362.5 MBYTE,  FILE 4:   771.8 MBYTE,   TOTAL:   1134.3 MBYTE

 OPERATOR DM      FOR CENTER  0  COORDINATES:    0.000000    0.000000    0.000000


 **********************************************************************************************************************************
 DATASETS  * FILE   NREC   LENGTH (MB)   RECORD NAMES
              1      19      311.88       500      610      700      900      950      970     1000      129      960     1100   
                                          VAR    BASINP    GEOM    SYMINP    ZMAT    AOBASIS   BASIS     P2S    ABASIS      S 
                                         1400     1410     1200     1210     1080     1600     1650     1300     1700   
                                           T        V       H0       H01     AOSYM     SMH    MOLCAS    ERIS     OPER   

 PROGRAMS   *        TOTAL       INT
 CPU TIMES  *         5.89      5.77
 REAL TIME  *        37.83 SEC
 DISK USED  *         1.13 GB
 **********************************************************************************************************************************


 PROGRAM * RHF-SCF (CLOSED SHELL)       Authors: W. Meyer, H.-J. Werner


 NUMBER OF ELECTRONS:       9+    9-
 CONVERGENCE THRESHOLDS:    1.00E-05 (Density)    1.00E-07 (Energy)
 MAX. NUMBER OF ITERATIONS:       60
 INTERPOLATION TYPE:            DIIS
 INTERPOLATION STEPS:              2 (START)      1 (STEP)
 LEVEL SHIFTS:                  0.00 (CLOSED)  0.00 (OPEN) 



 Orbital guess generated from atomic densities. Full valence occupancy:   11   3

 Molecular orbital dump at record        2100.2

 Initial occupancy:   7   2

 ITERATION    DDIFF          GRAD             ENERGY        2-EL.EN.            DIPOLE MOMENTS         DIIS   ORB.
    1      0.000D+00      0.000D+00      -115.06217810    164.495582    0.00000    0.90809   -0.49110    0    start
    2      0.000D+00      0.669D-02      -115.09059128    161.923819    0.00000    0.49698   -0.31133    1    diag
    3      0.654D-02      0.366D-02      -115.09809873    163.182544    0.00000    0.60133   -0.40577    2    diag
    4      0.222D-02      0.722D-03      -115.09863243    163.006279    0.00000    0.59611   -0.40087    3    diag
    5      0.594D-03      0.146D-03      -115.09866722    163.017956    0.00000    0.59211   -0.40568    4    diag
    6      0.166D-03      0.272D-04      -115.09866881    163.015649    0.00000    0.59224   -0.40646    5    diag
    7      0.477D-04      0.579D-05      -115.09866888    163.015299    0.00000    0.59206   -0.40674    6    diag
    8      0.120D-04      0.150D-05      -115.09866889    163.015639    0.00000    0.59205   -0.40677    7    diag
    9      0.234D-05      0.465D-06      -115.09866889    163.015474    0.00000    0.59203   -0.40677    0    orth

 Final occupancy:   7   2

 !RHF STATE  1.1 Energy              -115.098668888584
 Nuclear energy                        40.35854680
 One-electron energy                 -236.96495257
 Two-electron energy                   81.50773688
 Virial quotient                       -1.00099177
 !RHF STATE  1.1 Dipole moment          0.00000000     0.59203316    -0.40677382
 Dipole moment /Debye                   0.00000000     1.50469964    -1.03384820

 Orbital energies:

         1.1          2.1          3.1          4.1          5.1          6.1          7.1          8.1          9.1
    -20.556806   -11.269718    -1.357685    -0.925989    -0.690992    -0.593958    -0.505349     0.054527     0.065008

         1.2          2.2          3.2          4.2
     -0.621857    -0.452385     0.073740     0.181564


 HOMO      2.2    -0.452385 =     -12.3100eV
 LUMO      8.1     0.054527 =       1.4838eV
 LUMO-HOMO         0.506912 =      13.7938eV


 **********************************************************************************************************************************
 DATASETS  * FILE   NREC   LENGTH (MB)   RECORD NAMES
              1      19      311.88       500      610      700      900      950      970     1000      129      960     1100   
                                          VAR    BASINP    GEOM    SYMINP    ZMAT    AOBASIS   BASIS     P2S    ABASIS      S 
                                         1400     1410     1200     1210     1080     1600     1650     1300     1700   
                                           T        V       H0       H01     AOSYM     SMH    MOLCAS    ERIS     OPER   

              2       4        3.18       700     1000      520     2100   
                                         GEOM     BASIS   MCVARS     RHF  

 PROGRAMS   *        TOTAL    HF-SCF       INT
 CPU TIMES  *         8.92      3.03      5.77
 REAL TIME  *        42.80 SEC
 DISK USED  *         1.13 GB
 **********************************************************************************************************************************


 PROGRAM * MP2 (Closed-shell)     Authors: C. Hampel, H.-J. Werner, 1991, M. Deegan, P.J. Knowles, 1992

                                   MP2-F12 implementation by H.-J. Werner, 2007

                   Density fitting integral evaluation by F.R. Manby, 2003,2007, G. Knizia, 2010


 Basis set AUG-CC-PVTZ/JKFIT generated.  Number of basis functions:   392 
 Basis set CC-PVTZ-F12/OPTRI generated.  Number of basis functions:   314 
 Basis set AUG-CC-PVTZ/MP2FIT generated. Number of basis functions:   396 

 Convergence thresholds:  THRVAR = 1.00D-08  THRDEN = 1.00D-06

 Number of core orbitals:           2 (   2   0 )
 Number of closed-shell orbitals:   7 (   5   2 )
 Number of external orbitals:     169 ( 107  62 )

 Molecular orbitals read from record     2100.2  Type=RHF/CANONICAL (state 1.1)

 MP2-F12 correlation treatment (H.-J. Werner, 2006)
 ==================================================

 Using MP2-F12 with ansatz 3C(FIX)

 Using projected zeroth-order Hamiltonian (+Z)

 FOCKRIB=T FOCKRIC=T FOCKRIP=T CABSP=T CABSA=T CABSK=T CABSF=T GBC=F EBC=F DMAT=T NOFIK=T NOPAO=1 SOLVE=-1  USEPAO=0
 EXCH_A= T EXCH_B= F EXCH_C= F EXCH_P= F

 Geminal basis:    OPTFULL  GEM_TYPE=SLATER  BETA=1.0  NGEM=6

 Optimizing Gaussian exponents for each gem_beta

 Geminal optimization for beta= 1.0000
 Weight function:   m=0, omega= 1.4646

 Augmented Hessian optimization of geminal fit. Trust ratio= 0.40000
 Convergence reached after   2 iterations. Final gradient= 8.66D-16, Step= 4.23D-06, Delta= 1.28D-09

 Alpha:                 0.19532     0.81920     2.85917     9.50073    35.69989   197.79328
 Coeff:                 0.27070     0.30552     0.18297     0.10986     0.06810     0.04224


 Symmetry turned off. Reference energy:       -115.098668888585

 All pairs explicitly correlated. Number of r12-pairs:           28

 Excluding core orbitals from MO domains

 AO(A)-basis ORBITAL           loaded. Number of functions:     178
 RI(R)-basis CC-PVTZ-F12/OPTRI loaded. Number of functions:     314
 DF-basis AUG-CC-PVTZ/JKFIT    loaded. Number of functions:     392

 Screening thresholds:   THRAO=  1.00D-10  THRMO=  1.00D-09  THRPROD=  1.00D-09
                         THRSW=  1.00D-05  THROV=  1.00D-12  THRAOF12= 1.00D-08

 CPU time for Fock operators                      5.38 sec

 Construction of ABS:
 Smallest eigenvalue of S          4.31E-04  (threshold= 1.00E-08)
 Ratio eigmin/eigmax               5.50E-05  (threshold= 1.00E-09)
 Smallest eigenvalue of S kept     4.31E-04  (threshold= 4.31E-04, 0 functions deleted, 314 kept)

 Construction of CABS:
 Smallest eigenvalue of S          7.25E-07  (threshold= 1.00E-08)
 Ratio eigmin/eigmax               7.25E-07  (threshold= 1.00E-09)
 Smallest eigenvalue of S kept     7.25E-07  (threshold= 7.25E-07, 0 functions deleted, 314 kept)

 CPU time for CABS singles                        0.04 sec

 CABS-singles contribution of  -0.00135376 patched into reference energy.
 New reference energy        -115.10002265

 AO(A)-basis ORBITAL           loaded. Number of functions:     178
 RI(R)-basis CC-PVTZ-F12/OPTRI loaded. Number of functions:     314
 DF-basis AUG-CC-PVTZ/MP2FIT   loaded. Number of functions:     396

 Screening thresholds:   THRAO=  1.00D-10  THRMO=  1.00D-09  THRPROD=  1.00D-09
                         THRSW=  1.00D-05  THROV=  1.00D-12  THRAOF12= 1.00D-08

 CPU time for 3-index integral evaluation         3.37 sec
 CPU time for first  half transformation          0.22 sec (11223.0 MFLOP/sec)
 CPU time for second half transformation          0.03 sec ( 2072.3 MFLOP/sec)
 CPU time for fitting                             0.03 sec (37980.8 MFLOP/sec)
 CPU time for tilde quantities                    0.01 sec (******* MFLOP/sec)
 CPU time for assembly                            0.21 sec (58826.6 MFLOP/sec)
 CPU time for tranop_f12                          0.25 sec (63440.9 MFLOP/sec)
 CPU time for f12 integrals (total)               7.03 sec, Elapsed time:      7.43 sec
 CPU time for f12 matrices (total)                0.11 sec, Elapsed time:      0.14 sec

 Diagonal F12 approximation with fixed coefficients:  TSING= 0.500,  TTRIP= 0.250 (scaled by -1/beta)

 DF-MP2-F12 energy corrections:
 ==============================
 Approx.                                    Singlet             Triplet             Total
 DF-MP2-F12/3*C(DX,FIX)                -0.038285942718     -0.004213852154     -0.042499794872
 DF-MP2-F12/3*C(FIX)                   -0.036086467969     -0.003932278819     -0.040018746789
 DF-MP2-F12/3C(FIX)                    -0.036029124335     -0.004067301452     -0.040096425787

 DF-MP2-F12 correlation energies:
 ================================
 Approx.                                    Singlet             Triplet             Ecorr            Total Energy
 DF-MP2                                -0.291144989522     -0.152404222493     -0.443549212015   -115.543571861910
 DF-MP2-F12/3*C(DX,FIX)                -0.329430932240     -0.156618074648     -0.486049006888   -115.586071656783
 DF-MP2-F12/3*C(FIX)                   -0.327231457491     -0.156336501313     -0.483567958804   -115.583590608699
 DF-MP2-F12/3C(FIX)                    -0.327174113858     -0.156471523945     -0.483645637803   -115.583668287697

 SCS-DF-MP2 energies (F_SING= 1.20000  F_TRIP= 0.62222  F_PARALLEL= 0.33333):
 ============================================================================
 SCS-DF-MP2                            -0.444203281422   -115.544225931317
 SCS-DF-MP2-F12/3*C(DX,FIX)            -0.492768365136   -115.592791015031
 SCS-DF-MP2-F12/3*C(FIX)               -0.489953794251   -115.589976444146
 SCS-DF-MP2-F12/3C(FIX)                -0.489968995973   -115.589991645868

 Symmetry restored.
 Symmetry transformation completed.

 Number of N-1 electron functions:               7
 Number of N-2 electron functions:              28
 Number of singly external CSFs:               659
 Number of doubly external CSFs:            355020
 Total number of CSFs:                      355680

 Length of J-op  integral file:             103.49 MB
 Length of K-op  integral file:             127.95 MB

 Integral transformation finished. Total CPU:   0.47 sec, npass=  1  Memory used:   0.67 MW

 ITER.      SQ.NORM     CORR.ENERGY   TOTAL ENERGY   ENERGY CHANGE     VAR   MIC
   1      1.00000000    -0.44361547  -115.54363812    -0.44361547  0.00D+00   0
   2      1.11477408    -0.44361547  -115.54363812     0.00000000 -0.26D-16   0

 Solving MP2-F12 equations

   1      1.11473779    -0.48295347  -115.58297612    -0.03933799 -0.37D-04   0
   2      1.11473779    -0.48371051  -115.58373316    -0.00075704 -0.34D-18   0
   3      1.11473779    -0.48371051  -115.58373316     0.00000000  0.31D-19   0

 CPU TIME FOR ITERATIVE MP2:    0.04 SEC


 MP2-F12 energy corrections:
 ===========================
 Approx.                                    Singlet             Triplet             Total
 MP2-F12/3*C(DX,FIX)                   -0.038285942718     -0.004213852154     -0.042499794872
 MP2-F12/3*C(FIX)                      -0.036086467969     -0.003932278819     -0.040018746789
 MP2-F12/3C(FIX)                       -0.036026433757     -0.004068602743     -0.040095036499

 MP2-F12 correlation energies:
 =============================
 Approx.                                    Singlet             Triplet             Ecorr            Total Energy
 MP2                                   -0.291328392096     -0.152287081768     -0.443615473863   -115.543638123758
 MP2-F12/3*C(DX,FIX)                   -0.329614334814     -0.156500933922     -0.486115268736   -115.586137918631
 MP2-F12/3*C(FIX)                      -0.327414860065     -0.156219360587     -0.483634220652   -115.583656870547
 MP2-F12/3C(FIX)                       -0.327354825853     -0.156355684510     -0.483710510363   -115.583733160258

 SCS-MP2 energies (F_SING= 1.20000  F_TRIP= 0.62222  F_PARALLEL= 0.33333):
 =========================================================================
 SCS-MP2                               -0.444350476948   -115.544373126843
 SCS-MP2-F12/3*C(DX,FIX)               -0.492915560662   -115.592938210556
 SCS-MP2-F12/3*C(FIX)                  -0.490100989777   -115.590123639672
 SCS-MP2-F12/3C(FIX)                   -0.490113772496   -115.590136422391


  Reference energy                   -115.098668888584
  F12 singles correction               -0.001353761310

 F12 singles corrections added to reference energy

  New reference energy               -115.100022649895

  F12/3C(F) singlet correction         -0.036026433757
  F12/3C(F) triplet correction         -0.004068602743
  F12/3C(F) total correction           -0.040095036499
  MP2-F12/3C(F) singlet pair energy    -0.327354825853
  MP2-F12/3C(F) triplet pair energy    -0.156355684510
  MP2-F12/3C(F) correlation energy     -0.483710510363

 !MP2-F12/3C(F) total energy         -115.583733160258


 **********************************************************************************************************************************
 DATASETS  * FILE   NREC   LENGTH (MB)   RECORD NAMES
              1      20      317.62       500      610      700      900      950      970     1000      129      960     1100   
                                          VAR    BASINP    GEOM    SYMINP    ZMAT    AOBASIS   BASIS     P2S    ABASIS      S 
                                         1400     1410     1200     1210     1080     1600     1650     1300     1700     1380   
                                           T        V       H0       H01     AOSYM     SMH    MOLCAS    ERIS     OPER     JKOP   

              2       7        3.55       700     1000      520     2100     7360     7350     7000   
                                         GEOM     BASIS   MCVARS     RHF    F12ABS    EF12   

 PROGRAMS   *        TOTAL   MP2-F12    HF-SCF       INT
 CPU TIMES  *        22.17     13.24      3.03      5.77
 REAL TIME  *        57.28 SEC
 DISK USED  *         1.13 GB
 **********************************************************************************************************************************


 PROGRAM * CCSD (Closed-shell coupled cluster)     Authors: C. Hampel, H.-J. Werner, 1991, M. Deegan, P.J. Knowles, 1992

                                  CCSD-F12 implementation by  H.-J. Werner, 2007

                   Density fitting integral evaluation by F.R. Manby, 2003,2007, G. Knizia, 2010



 Convergence thresholds:  THRVAR = 1.00D-08  THRDEN = 1.00D-06

 CCSD(T)     terms to be evaluated (factor= 1.000)


 Number of core orbitals:           2 (   2   0 )
 Number of closed-shell orbitals:   7 (   5   2 )
 Number of external orbitals:     169 ( 107  62 )

 Molecular orbitals read from record     2100.2  Type=RHF/CANONICAL (state 1.1)

 MP2-F12 correlation treatment (H.-J. Werner, 2006)
 ==================================================

 Using MP2-F12 with ansatz 3C(FIX)

 Using projected zeroth-order Hamiltonian (+Z)

 FOCKRIB=T FOCKRIC=T FOCKRIP=T CABSP=T CABSA=T CABSK=T CABSF=T GBC=F EBC=F DMAT=T NOFIK=T NOPAO=1 SOLVE=-1  USEPAO=0
 EXCH_A= T EXCH_B= F EXCH_C= F EXCH_P= F

 Geminal basis:    OPTFULL  GEM_TYPE=SLATER  BETA=1.0  NGEM=6

 Optimizing Gaussian exponents for each gem_beta

 Geminal optimization for beta= 1.0000
 Weight function:   m=0, omega= 1.4646

 Augmented Hessian optimization of geminal fit. Trust ratio= 0.40000
 Convergence reached after   2 iterations. Final gradient= 8.66D-16, Step= 4.23D-06, Delta= 1.28D-09

 Alpha:                 0.19532     0.81920     2.85917     9.50073    35.69989   197.79328
 Coeff:                 0.27070     0.30552     0.18297     0.10986     0.06810     0.04224


 Symmetry turned off. Reference energy:       -115.098668888585

 All pairs explicitly correlated. Number of r12-pairs:           28

 Excluding core orbitals from MO domains

 AO(A)-basis ORBITAL           loaded. Number of functions:     178
 RI(R)-basis CC-PVTZ-F12/OPTRI loaded. Number of functions:     314
 DF-basis AUG-CC-PVTZ/JKFIT    loaded. Number of functions:     392

 Screening thresholds:   THRAO=  1.00D-10  THRMO=  1.00D-09  THRPROD=  1.00D-09
                         THRSW=  1.00D-05  THROV=  1.00D-12  THRAOF12= 1.00D-08

 CPU time for Fock operators                      5.32 sec

 Construction of ABS:
 Smallest eigenvalue of S          4.31E-04  (threshold= 1.00E-08)
 Ratio eigmin/eigmax               5.50E-05  (threshold= 1.00E-09)
 Smallest eigenvalue of S kept     4.31E-04  (threshold= 4.31E-04, 0 functions deleted, 314 kept)

 Construction of CABS:
 Smallest eigenvalue of S          7.25E-07  (threshold= 1.00E-08)
 Ratio eigmin/eigmax               7.25E-07  (threshold= 1.00E-09)
 Smallest eigenvalue of S kept     7.25E-07  (threshold= 7.25E-07, 0 functions deleted, 314 kept)

 CPU time for CABS singles                        0.04 sec

 CABS-singles contribution of  -0.00135376 patched into reference energy.
 New reference energy        -115.10002265

 AO(A)-basis ORBITAL           loaded. Number of functions:     178
 RI(R)-basis CC-PVTZ-F12/OPTRI loaded. Number of functions:     314
 DF-basis AUG-CC-PVTZ/MP2FIT   loaded. Number of functions:     396

 Screening thresholds:   THRAO=  1.00D-10  THRMO=  1.00D-09  THRPROD=  1.00D-09
                         THRSW=  1.00D-05  THROV=  1.00D-12  THRAOF12= 1.00D-08

 CPU time for 3-index integral evaluation         3.37 sec
 CPU time for first  half transformation          0.25 sec ( 9876.2 MFLOP/sec)
 CPU time for second half transformation          0.02 sec ( 3108.5 MFLOP/sec)
 CPU time for sorting                             0.02 sec
 CPU time for fitting                             0.02 sec (56971.3 MFLOP/sec)
 CPU time for tilde quantities                    0.03 sec (50348.4 MFLOP/sec)
 CPU time for assembly                            0.19 sec (65018.9 MFLOP/sec)
 CPU time for tranop_f12                          0.25 sec (63440.9 MFLOP/sec)
 CPU time for f12 integrals (total)               7.03 sec, Elapsed time:      7.40 sec
 CPU time for f12 matrices (total)                0.10 sec, Elapsed time:      0.13 sec

 Diagonal F12 approximation with fixed coefficients:  TSING= 0.500,  TTRIP= 0.250 (scaled by -1/beta)

 DF-MP2-F12 energy corrections:
 ==============================
 Approx.                                    Singlet             Triplet             Total
 DF-MP2-F12/3*C(DX,FIX)                -0.038285942718     -0.004213852154     -0.042499794872
 DF-MP2-F12/3*C(FIX)                   -0.036086467969     -0.003932278819     -0.040018746789
 DF-MP2-F12/3C(FIX)                    -0.036029124335     -0.004067301452     -0.040096425787

 DF-MP2-F12 correlation energies:
 ================================
 Approx.                                    Singlet             Triplet             Ecorr            Total Energy
 DF-MP2                                -0.291144989522     -0.152404222493     -0.443549212015   -115.543571861910
 DF-MP2-F12/3*C(DX,FIX)                -0.329430932240     -0.156618074648     -0.486049006888   -115.586071656783
 DF-MP2-F12/3*C(FIX)                   -0.327231457491     -0.156336501313     -0.483567958804   -115.583590608699
 DF-MP2-F12/3C(FIX)                    -0.327174113858     -0.156471523945     -0.483645637803   -115.583668287697

 SCS-DF-MP2 energies (F_SING= 1.20000  F_TRIP= 0.62222  F_PARALLEL= 0.33333):
 ============================================================================
 SCS-DF-MP2                            -0.444203281422   -115.544225931317
 SCS-DF-MP2-F12/3*C(DX,FIX)            -0.492768365136   -115.592791015031
 SCS-DF-MP2-F12/3*C(FIX)               -0.489953794251   -115.589976444146
 SCS-DF-MP2-F12/3C(FIX)                -0.489968995973   -115.589991645868

 Symmetry restored.
 Symmetry transformation completed.

 Number of N-1 electron functions:               7
 Number of N-2 electron functions:              28
 Number of singly external CSFs:               659
 Number of doubly external CSFs:            355020
 Total number of CSFs:                      355680

 Length of J-op  integral file:             103.62 MB
 Length of K-op  integral file:             127.95 MB
 Length of 3-ext integral record:             0.00 MB

 Memory could be reduced to 24.20 Mwords without degradation in triples

 Integral transformation finished. Total CPU:   1.21 sec, npass=  1  Memory used:   7.45 MW

 Reference energy:                   -115.10002265

 Adding F12 terms to K(Cij), methodcc=6,  factor= 1.0

 ITER.      SQ.NORM     CORR.ENERGY   TOTAL ENERGY   ENERGY CHANGE        DEN1      VAR(S)    VAR(P)  DIIS     TIME  TIME/IT
   1      1.11765337    -0.45293965  -115.55296230    -0.00932418     0.00168636  0.15D-02  0.19D-02  1  1    14.59     0.91
   2      1.12506598    -0.45329962  -115.55332227    -0.00035997    -0.00905223  0.24D-04  0.23D-03  2  2    15.43     0.92
   3      1.12779694    -0.45347698  -115.55349963    -0.00017736    -0.00186576  0.15D-04  0.13D-04  3  3    16.27     0.92
   4      1.12874511    -0.45349483  -115.55351748    -0.00001785    -0.00060102  0.86D-06  0.12D-05  4  4    17.10     0.92
   5      1.12890047    -0.45349640  -115.55351905    -0.00000157    -0.00003792  0.23D-06  0.10D-06  5  5    17.95     0.92
   6      1.12894284    -0.45349404  -115.55351669     0.00000235    -0.00000419  0.35D-07  0.95D-08  6  6    18.79     0.92
   7      1.12895386    -0.45349317  -115.55351582     0.00000087    -0.00000297  0.39D-08  0.14D-08  6  1    19.61     0.93
   8      1.12895564    -0.45349323  -115.55351588    -0.00000006     0.00000033  0.66D-09  0.20D-09  6  3    20.47     0.93

 Norm of t1 vector:      0.05003278      S-energy:    -0.00000037      T1 diagnostic:  0.00945531
                                                                       D1 diagnostic:  0.02007092

 Adding energy correction from Wij-K(Fij), methodcc=6  factor= 1.0

  CCSD correlation energy              -0.453493230769
  MP2-F12 correction (uncoupled)       -0.038543962008
  C*T doubles correction               -0.001165530249
  f12b correction                       0.007098293891


 Total CPU time for triples:     11.90 sec


 RESULTS
 =======

  Reference energy                   -115.098668888584
  F12 singles correction               -0.001353761310

 F12 singles corrections added to reference energy

  New reference energy               -115.100022649895

  F12a singlet correction              -0.035789584400
  F12a triplet correction              -0.003919907856
  F12a total correction                -0.039709492257

 F12a corrections for ansatz F12/3C(FIX) added to CCSD energy

  CCSD-F12a singlet pair energy        -0.351258663638
  CCSD-F12a triplet pair energy        -0.141943692635
  CCSD-F12a correlation energy         -0.493202723026

  Triples (T) contribution             -0.016023165145
  Total correlation energy             -0.509225888172

  CCSD-F12a total energy             -115.593225372921
  CCSD[T]-F12a energy                -115.609802200444
  CCSD-T-F12a energy                 -115.609004468532
 !CCSD(T)-F12a total energy          -115.609248538066

 F12b corrections for ansatz F12/3C(FIX) added to CCSD(T)-F12a energy

  CCSD-F12b singlet pair energy        -0.344622475008
  CCSD-F12b triplet pair energy        -0.141481587375
  CCSD-F12b correlation energy         -0.486104429135

  Triples (T) contribution             -0.016023165145
  Total correlation energy             -0.502127594281

  CCSD-F12b total energy             -115.586127079030
  CCSD[T]-F12b energy                -115.602703906553
  CCSD-T-F12b energy                 -115.601906174641
 !CCSD(T)-F12b total energy          -115.602150244176

 Timing summary (sec):

 STEP                 CPU(USER)    SYS     CPU(TOT)    WALL
 Transformation          1.22      0.23      1.45      1.45
 CCSD iterations         6.69      0.70      7.39      7.43
 Triples                11.90      0.47     12.37     12.40
 MP2-F12                12.56      0.53     13.09     13.26
 F12b energy             0.66      0.06      0.72      0.72

 Program statistics:

 Available memory in ccsd:               499999650
 Min. memory needed in ccsd:               1149135
 Max. memory used in ccsd:                 1443104
 Max. memory used in cckext:               1888566 ( 9 integral passes)



 **********************************************************************************************************************************
 DATASETS  * FILE   NREC   LENGTH (MB)   RECORD NAMES
              1      20      386.19       500      610      700      900      950      970     1000      129      960     1100   
                                          VAR    BASINP    GEOM    SYMINP    ZMAT    AOBASIS   BASIS     P2S    ABASIS      S 
                                         1400     1410     1200     1210     1080     1600     1650     1300     1700     1380   
                                           T        V       H0       H01     AOSYM     SMH    MOLCAS    ERIS     OPER     JKOP   

              2       7        3.55       700     1000      520     2100     7360     7350     7000   
                                         GEOM     BASIS   MCVARS     RHF    F12ABS    EF12   

 PROGRAMS   *        TOTAL   CCSD(T)   MP2-F12    HF-SCF       INT
 CPU TIMES  *        55.23     33.06     13.24      3.03      5.77
 REAL TIME  *        92.60 SEC
 DISK USED  *         1.13 GB
 **********************************************************************************************************************************
 SETTING XXX            =    "MMM"
 SETTING POINT          =        57.00000000                                  

 *** ### CH3OH


 XXX       RCO          ROH          RCH1         RCH2         RCH3           ACOH           AOCH1          AOCH2          AOCH3         AHH1           AHH2           AHH3            ENERGY       POINT
 "MMM"   1.42077677   0.96013932   1.09171752   1.08440070   1.09171752   107.12930637   111.65221523   107.18733878   111.65221523   61.43364279   180.00000000   298.56635721   -115.60924854   57.0000
                                                  

 CCSD(T)-F12/cc-pVTZ-F12 energy=   -115.602150244176

     CCSD(T)-F12         MP2-F12          HF-SCF
   -115.60215024   -115.58373316   -115.09866889
 **********************************************************************************************************************************
 Molpro calculation terminated
