
 Primary working directories    : /tmpdir/job/2955601.undefined/molpro.HRXrZHrX4o
 Secondary working directories  : /tmpdir/job/2955601.undefined/molpro.HRXrZHrX4o
 Wavefunction directory         : /home/zcaposm/wfu/
 Main file repository           : /tmpdir/job/2955601.undefined/molpro.HRXrZHrX4o/

 id        : uclcc

 Nodes                         nprocs
 node-d00a-245.myriad.ucl.ac.uk    1

 Using customized tuning parameters: mindgm=1; mindgv=20; mindgc=4; mindgr=1; noblas=0; minvec=7
 default implementation of scratch files=df  


 Variables initialized (945), CPU time= 0.00 sec
 ***,Methanol Ground State Energy with CCSD(T)-F12 and cc-pVTZ-F12
 memory,500,m;
 
 geometry={angstrom
 c
 o , 1, rco
 h , 2, roh, 1, acoh
 h1, 1, rch1, 2, aoch1  3  ahh1
 h2, 1, rch2, 2, aoch2, 3, ahh2
 h3, 1, rch3, 2, aoch3, 3, ahh3
 }
 
                                                ! Specify the initial values of the internal coordinates (in Angstroms and degrees)
 
 rco= 1.42077677
 roh= 0.96013932
 rch1= 1.121717515605
 rch2= 1.08440070258
 rch3= 1.091717515605
 acoh= 108.12930637
 aoch1= 111.6522152299
 aoch2= 107.18733878260001
 aoch3= 111.6522152299
 ahh1=61.43364279
 ahh2=180.0
 ahh3=298.56635721
 
                                                                                 ! Use the cc-pVTZ-F12 basis set
 basis=cc-pVTZ-F12
 
 hf
 
                                                                                 ! Use explicitly correlated F12 methods
                                                                            ! First, MP2-F12 (useful for initial electronic energy)
 {mp2-f12}
 
                                                                        ! If desired, perform CCSD(T)-F12 for more accurate results
 {ccsd(t)-f12}
 
                                                                                 ! Output the energy
 xxx = "mmm"
 point = 36
 text ### CH3OH
 table,xxx,rco,roh,rch1,rch2,rch3,acoh,aoch1,aoch2,aoch3,ahh1,ahh2,ahh3,energy,point
 DIGITS, 0, 8, 8, 8, 8, 8, 8, 8, 8, 8,  8,  8,  8, 8, 4
 save,CH3OH_MEP_MP2_36.dat,new
 
 Commands  initialized (802), CPU time= 0.01 sec, 659 directives.
 Default parameters read. Elapsed time= 0.10 sec

 Checking input...
 Passed
1


                                         ***  PROGRAM SYSTEM MOLPRO  ***
                                       Copyright, TTI GmbH Stuttgart, 2015
                                    Version 2020.1 linked Oct  6 2020 12:04:11


 **********************************************************************************************************************************
 LABEL *   Methanol Ground State Energy with CCSD(T)-F12 and cc-pVTZ-F12                 
  64 bit serial version                                                                  DATE: 08-Oct-24          TIME: 17:15:51  
 **********************************************************************************************************************************

 SHA1:             8c27446f6450a7499e38f603e13c65f775101d37
 **********************************************************************************************************************************

 Memory per process:       500 MW
 Total memory per node:    500 MW

 GA preallocation disabled
 GA check disabled

 Variable memory set to 500.0 MW

 SETTING RCO            =         1.42077677                                  
 SETTING ROH            =         0.96013932                                  
 SETTING RCH1           =         1.12171752                                  
 SETTING RCH2           =         1.08440070                                  
 SETTING RCH3           =         1.09171752                                  
 SETTING ACOH           =       108.12930637                                  
 SETTING AOCH1          =       111.65221523                                  
 SETTING AOCH2          =       107.18733878                                  
 SETTING AOCH3          =       111.65221523                                  
 SETTING AHH1           =        61.43364279                                  
 SETTING AHH2           =       180.00000000                                  
 SETTING AHH3           =       298.56635721                                  
 SETTING BASIS          =    CC-PVTZ-F12


 Recomputing integrals since basis changed


 Using spherical harmonics

 Library entry C      S cc-pVTZ-F12          selected for orbital group  1
 Library entry C      P cc-pVTZ-F12          selected for orbital group  1
 Library entry C      D cc-pVTZ-F12          selected for orbital group  1
 Library entry C      F cc-pVTZ-F12          selected for orbital group  1
 Library entry O      S cc-pVTZ-F12          selected for orbital group  2
 Library entry O      P cc-pVTZ-F12          selected for orbital group  2
 Library entry O      D cc-pVTZ-F12          selected for orbital group  2
 Library entry O      F cc-pVTZ-F12          selected for orbital group  2
 Library entry H      S cc-pVTZ-F12          selected for orbital group  3
 Library entry H      P cc-pVTZ-F12          selected for orbital group  3
 Library entry H      D cc-pVTZ-F12          selected for orbital group  3


 PROGRAM * SEWARD (Integral evaluation for generally contracted gaussian basis sets)     Author: Roland Lindh, 1990

 Geometry written to block  1 of record 700

 Orientation using atomic masses  
 Molecule type: Asymmetric top
 Rotational constants:      23.9144762     24.7271610    126.8660297 GHz  (calculated with average atomic masses)

 Point group  C1  



 ATOMIC COORDINATES

 NR  ATOM    CHARGE       X              Y              Z

   1  C       6.00   -0.005239853    0.022415273   -1.376002212
   2  O       8.00    0.005818347   -0.121072469    1.305017019
   3  H       1.00   -0.055219995    1.569441443    1.961131099
   4  H1      1.00    1.686067085    1.068188577   -2.110258309
   5  H2      1.00    0.064205833   -1.898798711   -2.085521848
   6  H3      1.00   -1.724969571    0.915887244   -2.083392425

 Bond lengths in Bohr (Angstrom)

 1-2  2.684878979  1-4  2.119738894  1-5  2.049220337  1-6  2.063047110  2-3  1.814400356
     ( 1.420776770)     ( 1.121717516)     ( 1.084400703)     ( 1.091717516)     ( 0.960139320)

 Bond angles

  1-2-3  108.12930637   2-1-4  111.65221523   2-1-5  107.18733878   2-1-6  111.65221523

  4-1-5  108.39459424   4-1-6  109.43105099   5-1-6  108.39459424

 NUCLEAR CHARGE:                   18
 NUMBER OF PRIMITIVE AOS:         228
 NUMBER OF SYMMETRY AOS:          206
 NUMBER OF CONTRACTIONS:          178   (  178A   )
 NUMBER OF INNER CORE ORBITALS:     0   (    0A   )
 NUMBER OF OUTER CORE ORBITALS:     2   (    2A   )
 NUMBER OF VALENCE ORBITALS:       12   (   12A   )


 NUCLEAR REPULSION ENERGY   40.23556378

 Eigenvalues of metric

         1 0.900E-04 0.185E-03 0.312E-03 0.334E-03 0.460E-03 0.493E-03 0.561E-03 0.577E-03


 Contracted 2-electron integrals neglected if value below      1.0D-11
 AO integral compression algorithm  1   Integral accuracy      1.0D-11

     619.971 MB (compressed) written to integral file ( 52.0%)


 NUMBER OF SORTED TWO-ELECTRON INTEGRALS:  126906346.     BUFFER LENGTH:  32768
 NUMBER OF SEGMENTS:   8  SEGMENT LENGTH:   15999503      RECORD LENGTH: 524288

 Memory used in sort:      16.56 MW

 SORT1 READ   149034713. AND WROTE   124855852. INTEGRALS IN    360 RECORDS. CPU TIME:     4.14 SEC, REAL TIME:   315.98 SEC
 SORT2 READ   124855852. AND WROTE   126906346. INTEGRALS IN   2365 RECORDS. CPU TIME:     2.18 SEC, REAL TIME:   269.33 SEC

 FILE SIZES:   FILE 1:   651.2 MBYTE,  FILE 4:  1510.0 MBYTE,   TOTAL:   2161.2 MBYTE

 OPERATOR DM      FOR CENTER  0  COORDINATES:    0.000000    0.000000    0.000000


 **********************************************************************************************************************************
 DATASETS  * FILE   NREC   LENGTH (MB)   RECORD NAMES
              1      19      570.97       500      610      700      900      950      970     1000      129      960     1100   
                                          VAR    BASINP    GEOM    SYMINP    ZMAT    AOBASIS   BASIS     P2S    ABASIS      S 
                                         1400     1410     1200     1210     1080     1600     1650     1300     1700   
                                           T        V       H0       H01     AOSYM     SMH    MOLCAS    ERIS     OPER   

 PROGRAMS   *        TOTAL       INT
 CPU TIMES  *        10.91     10.79
 REAL TIME  *       710.06 SEC
 DISK USED  *         2.16 GB
 **********************************************************************************************************************************


 PROGRAM * RHF-SCF (CLOSED SHELL)       Authors: W. Meyer, H.-J. Werner


 NUMBER OF ELECTRONS:       9+    9-    SPACE SYMMETRY=1    SPIN SYMMETRY: Singlet 
 CONVERGENCE THRESHOLDS:    1.00E-05 (Density)    1.00E-07 (Energy)
 MAX. NUMBER OF ITERATIONS:       60
 INTERPOLATION TYPE:            DIIS
 INTERPOLATION STEPS:              2 (START)      1 (STEP)
 LEVEL SHIFTS:                  0.00 (CLOSED)  0.00 (OPEN) 



 Orbital guess generated from atomic densities. Full valence occupancy:   14

 Molecular orbital dump at record        2100.2

 Initial occupancy:   9

 ITERATION    DDIFF          GRAD             ENERGY        2-EL.EN.            DIPOLE MOMENTS         DIIS   ORB.
    1      0.000D+00      0.000D+00      -115.06142110    164.258758   -0.03019    0.90576   -0.47752    0    start
    2      0.000D+00      0.507D-02      -115.08980563    161.695889   -0.02615    0.49096   -0.29650    1    diag
    3      0.480D-02      0.279D-02      -115.09739902    162.954896   -0.03074    0.59392   -0.39088    2    diag
    4      0.164D-02      0.544D-03      -115.09793071    162.778510   -0.03176    0.58828   -0.38575    3    diag
    5      0.435D-03      0.110D-03      -115.09796512    162.791156   -0.03217    0.58400   -0.39027    4    diag
    6      0.121D-03      0.203D-04      -115.09796666    162.788251   -0.03230    0.58405   -0.39098    5    diag
    7      0.348D-04      0.422D-05      -115.09796673    162.788255   -0.03232    0.58386   -0.39122    6    diag
    8      0.876D-05      0.973D-06      -115.09796674    162.788378   -0.03232    0.58385   -0.39123    0    orth

 Final occupancy:   9

 !RHF STATE  1.1 Energy              -115.097966737747
 Nuclear energy                        40.23556378
 One-electron energy                 -236.72771966
 Two-electron energy                   81.39418914
 Virial quotient                       -1.00138139
 !RHF STATE  1.1 Dipole moment         -0.03232067     0.58384816    -0.39122640
 Dipole moment /Debye                  -0.08214557     1.48389681    -0.99433320

 Orbital energies:

         1.1          2.1          3.1          4.1          5.1          6.1          7.1          8.1          9.1         10.1
    -20.557067   -11.273582    -1.357411    -0.923504    -0.690000    -0.618507    -0.594964    -0.503716    -0.450919     0.054872

        11.1
      0.065019


 HOMO      9.1    -0.450919 =     -12.2701eV
 LUMO     10.1     0.054872 =       1.4932eV
 LUMO-HOMO         0.505792 =      13.7633eV


 **********************************************************************************************************************************
 DATASETS  * FILE   NREC   LENGTH (MB)   RECORD NAMES
              1      19      570.97       500      610      700      900      950      970     1000      129      960     1100   
                                          VAR    BASINP    GEOM    SYMINP    ZMAT    AOBASIS   BASIS     P2S    ABASIS      S 
                                         1400     1410     1200     1210     1080     1600     1650     1300     1700   
                                           T        V       H0       H01     AOSYM     SMH    MOLCAS    ERIS     OPER   

              2       4        3.48       700     1000      520     2100   
                                         GEOM     BASIS   MCVARS     RHF  

 PROGRAMS   *        TOTAL    HF-SCF       INT
 CPU TIMES  *        16.79      5.88     10.79
 REAL TIME  *       732.35 SEC
 DISK USED  *         2.16 GB
 **********************************************************************************************************************************


 PROGRAM * MP2 (Closed-shell)     Authors: C. Hampel, H.-J. Werner, 1991, M. Deegan, P.J. Knowles, 1992

                                   MP2-F12 implementation by H.-J. Werner, 2007

                   Density fitting integral evaluation by F.R. Manby, 2003,2007, G. Knizia, 2010


 Basis set AUG-CC-PVTZ/JKFIT generated.  Number of basis functions:   392 
 Basis set CC-PVTZ-F12/OPTRI generated.  Number of basis functions:   314 
 Basis set AUG-CC-PVTZ/MP2FIT generated. Number of basis functions:   396 

 Convergence thresholds:  THRVAR = 1.00D-08  THRDEN = 1.00D-06

 Number of core orbitals:           2 (   2 )
 Number of closed-shell orbitals:   7 (   7 )
 Number of external orbitals:     169 ( 169 )

 Molecular orbitals read from record     2100.2  Type=RHF/CANONICAL (state 1.1)

 MP2-F12 correlation treatment (H.-J. Werner, 2006)
 ==================================================

 Using MP2-F12 with ansatz 3C(FIX)

 Using projected zeroth-order Hamiltonian (+Z)

 FOCKRIB=T FOCKRIC=T FOCKRIP=T CABSP=T CABSA=T CABSK=T CABSF=T GBC=F EBC=F DMAT=T NOFIK=T NOPAO=1 SOLVE=-1  USEPAO=0
 EXCH_A= T EXCH_B= F EXCH_C= F EXCH_P= F

 Geminal basis:    OPTFULL  GEM_TYPE=SLATER  BETA=1.0  NGEM=6

 Optimizing Gaussian exponents for each gem_beta

 Geminal optimization for beta= 1.0000
 Weight function:   m=0, omega= 1.4646

 Augmented Hessian optimization of geminal fit. Trust ratio= 0.40000
 Convergence reached after   2 iterations. Final gradient= 8.66D-16, Step= 4.23D-06, Delta= 1.28D-09

 Alpha:                 0.19532     0.81920     2.85917     9.50073    35.69989   197.79328
 Coeff:                 0.27070     0.30552     0.18297     0.10986     0.06810     0.04224


 All pairs explicitly correlated. Number of r12-pairs:           28

 Excluding core orbitals from MO domains

 AO(A)-basis ORBITAL           loaded. Number of functions:     178
 RI(R)-basis CC-PVTZ-F12/OPTRI loaded. Number of functions:     314
 DF-basis AUG-CC-PVTZ/JKFIT    loaded. Number of functions:     392

 Screening thresholds:   THRAO=  1.00D-10  THRMO=  1.00D-09  THRPROD=  1.00D-09
                         THRSW=  1.00D-05  THROV=  1.00D-12  THRAOF12= 1.00D-08

 CPU time for Fock operators                      1.25 sec

 Construction of ABS:
 Smallest eigenvalue of S          4.50E-04  (threshold= 1.00E-08)
 Ratio eigmin/eigmax               5.77E-05  (threshold= 1.00E-09)
 Smallest eigenvalue of S kept     4.50E-04  (threshold= 4.50E-04, 0 functions deleted, 314 kept)

 Construction of CABS:
 Smallest eigenvalue of S          7.66E-07  (threshold= 1.00E-08)
 Ratio eigmin/eigmax               7.66E-07  (threshold= 1.00E-09)
 Smallest eigenvalue of S kept     7.66E-07  (threshold= 7.66E-07, 0 functions deleted, 314 kept)

 CPU time for CABS singles                        0.03 sec

 CABS-singles contribution of  -0.00134496 patched into reference energy.
 New reference energy        -115.09931170

 AO(A)-basis ORBITAL           loaded. Number of functions:     178
 RI(R)-basis CC-PVTZ-F12/OPTRI loaded. Number of functions:     314
 DF-basis AUG-CC-PVTZ/MP2FIT   loaded. Number of functions:     396

 Screening thresholds:   THRAO=  1.00D-10  THRMO=  1.00D-09  THRPROD=  1.00D-09
                         THRSW=  1.00D-05  THROV=  1.00D-12  THRAOF12= 1.00D-08

 CPU time for 3-index integral evaluation         3.05 sec
 CPU time for first  half transformation          0.18 sec (13717.0 MFLOP/sec)
 CPU time for second half transformation          0.02 sec ( 3108.5 MFLOP/sec)
 CPU time for fitting                             0.02 sec (56971.3 MFLOP/sec)
 CPU time for tilde quantities                    0.02 sec (75522.6 MFLOP/sec)
 CPU time for assembly                            0.12 sec (******* MFLOP/sec)
 CPU time for tranop_f12                          0.19 sec (83474.9 MFLOP/sec)
 CPU time for f12 integrals (total)               3.93 sec, Elapsed time:      6.56 sec
 CPU time for f12 matrices (total)                0.08 sec, Elapsed time:      0.27 sec

 Diagonal F12 approximation with fixed coefficients:  TSING= 0.500,  TTRIP= 0.250 (scaled by -1/beta)

 DF-MP2-F12 energy corrections:
 ==============================
 Approx.                                    Singlet             Triplet             Total
 DF-MP2-F12/3*C(DX,FIX)                -0.038227790975     -0.004205034599     -0.042432825574
 DF-MP2-F12/3*C(FIX)                   -0.036042087426     -0.003924914034     -0.039967001460
 DF-MP2-F12/3C(FIX)                    -0.035985796007     -0.004060269116     -0.040046065123

 DF-MP2-F12 correlation energies:
 ================================
 Approx.                                    Singlet             Triplet             Ecorr            Total Energy
 DF-MP2                                -0.291356483695     -0.152379383175     -0.443735866870   -115.543047569167
 DF-MP2-F12/3*C(DX,FIX)                -0.329584274670     -0.156584417774     -0.486168692444   -115.585480394741
 DF-MP2-F12/3*C(FIX)                   -0.327398571120     -0.156304297209     -0.483702868329   -115.583014570626
 DF-MP2-F12/3C(FIX)                    -0.327342279702     -0.156439652290     -0.483781931992   -115.583093634289

 SCS-DF-MP2 energies (F_SING= 1.20000  F_TRIP= 0.62222  F_PARALLEL= 0.33333):
 ============================================================================
 SCS-DF-MP2                            -0.444441618854   -115.543753321151
 SCS-DF-MP2-F12/3*C(DX,FIX)            -0.492931433996   -115.592243136293
 SCS-DF-MP2-F12/3*C(FIX)               -0.490134292497   -115.589445994794
 SCS-DF-MP2-F12/3C(FIX)                -0.490150963734   -115.589462666031
 Symmetry transformation completed.

 Number of N-1 electron functions:               7
 Number of N-2 electron functions:              28
 Number of singly external CSFs:              1183
 Number of doubly external CSFs:            700336
 Total number of CSFs:                      701520

 Length of J-op  integral file:             104.98 MB
 Length of K-op  integral file:             138.67 MB

 Integral transformation finished. Total CPU:   0.95 sec, npass=  1  Memory used:   2.18 MW

 ITER.      SQ.NORM     CORR.ENERGY   TOTAL ENERGY   ENERGY CHANGE     VAR   MIC
   1      1.00000000    -0.44380257  -115.54311427    -0.44380257  0.00D+00   0
   2      1.11527267    -0.44380257  -115.54311427    -0.00000000  0.10D-15   0

 Solving MP2-F12 equations

   1      1.11523602    -0.48309021  -115.58240192    -0.03928764 -0.37D-04   0
   2      1.11523602    -0.48384721  -115.58315892    -0.00075700  0.18D-17   0
   3      1.11523602    -0.48384721  -115.58315892     0.00000000 -0.22D-18   0

 CPU TIME FOR ITERATIVE MP2:    0.07 SEC


 MP2-F12 energy corrections:
 ===========================
 Approx.                                    Singlet             Triplet             Total
 MP2-F12/3*C(DX,FIX)                   -0.038227790975     -0.004205034599     -0.042432825574
 MP2-F12/3*C(FIX)                      -0.036042087426     -0.003924914034     -0.039967001460
 MP2-F12/3C(FIX)                       -0.035983097116     -0.004061546279     -0.040044643396

 MP2-F12 correlation energies:
 =============================
 Approx.                                    Singlet             Triplet             Ecorr            Total Energy
 MP2                                   -0.291540092942     -0.152262476984     -0.443802569925   -115.543114272222
 MP2-F12/3*C(DX,FIX)                   -0.329767883916     -0.156467511583     -0.486235395499   -115.585547097796
 MP2-F12/3*C(FIX)                      -0.327582180367     -0.156187391018     -0.483769571385   -115.583081273682
 MP2-F12/3C(FIX)                       -0.327523190058     -0.156324023263     -0.483847213321   -115.583158915618

 SCS-MP2 energies (F_SING= 1.20000  F_TRIP= 0.62222  F_PARALLEL= 0.33333):
 =========================================================================
 SCS-MP2                               -0.444589208320   -115.543900910617
 SCS-MP2-F12/3*C(DX,FIX)               -0.493079023462   -115.592390725759
 SCS-MP2-F12/3*C(FIX)                  -0.490281881963   -115.589593584260
 SCS-MP2-F12/3C(FIX)                   -0.490296109211   -115.589607811508


  Reference energy                   -115.097966737747
  F12 singles correction               -0.001344964550

 F12 singles corrections added to reference energy

  New reference energy               -115.099311702297

  F12/3C(F) singlet correction         -0.035983097116
  F12/3C(F) triplet correction         -0.004061546279
  F12/3C(F) total correction           -0.040044643396
  MP2-F12/3C(F) singlet pair energy    -0.327523190058
  MP2-F12/3C(F) triplet pair energy    -0.156324023263
  MP2-F12/3C(F) correlation energy     -0.483847213321

 !MP2-F12/3C(F) total energy         -115.583158915618


 **********************************************************************************************************************************
 DATASETS  * FILE   NREC   LENGTH (MB)   RECORD NAMES
              1      20      582.15       500      610      700      900      950      970     1000      129      960     1100   
                                          VAR    BASINP    GEOM    SYMINP    ZMAT    AOBASIS   BASIS     P2S    ABASIS      S 
                                         1400     1410     1200     1210     1080     1600     1650     1300     1700     1380   
                                           T        V       H0       H01     AOSYM     SMH    MOLCAS    ERIS     OPER     JKOP   

              2       7        4.13       700     1000      520     2100     7360     7350     7000   
                                         GEOM     BASIS   MCVARS     RHF    F12ABS    EF12   

 PROGRAMS   *        TOTAL   MP2-F12    HF-SCF       INT
 CPU TIMES  *        23.33      6.54      5.88     10.79
 REAL TIME  *       743.10 SEC
 DISK USED  *         2.16 GB
 **********************************************************************************************************************************


 PROGRAM * CCSD (Closed-shell coupled cluster)     Authors: C. Hampel, H.-J. Werner, 1991, M. Deegan, P.J. Knowles, 1992

                                  CCSD-F12 implementation by  H.-J. Werner, 2007

                   Density fitting integral evaluation by F.R. Manby, 2003,2007, G. Knizia, 2010



 Convergence thresholds:  THRVAR = 1.00D-08  THRDEN = 1.00D-06

 CCSD(T)     terms to be evaluated (factor= 1.000)


 Number of core orbitals:           2 (   2 )
 Number of closed-shell orbitals:   7 (   7 )
 Number of external orbitals:     169 ( 169 )

 Molecular orbitals read from record     2100.2  Type=RHF/CANONICAL (state 1.1)

 MP2-F12 correlation treatment (H.-J. Werner, 2006)
 ==================================================

 Using MP2-F12 with ansatz 3C(FIX)

 Using projected zeroth-order Hamiltonian (+Z)

 FOCKRIB=T FOCKRIC=T FOCKRIP=T CABSP=T CABSA=T CABSK=T CABSF=T GBC=F EBC=F DMAT=T NOFIK=T NOPAO=1 SOLVE=-1  USEPAO=0
 EXCH_A= T EXCH_B= F EXCH_C= F EXCH_P= F

 Geminal basis:    OPTFULL  GEM_TYPE=SLATER  BETA=1.0  NGEM=6

 Optimizing Gaussian exponents for each gem_beta

 Geminal optimization for beta= 1.0000
 Weight function:   m=0, omega= 1.4646

 Augmented Hessian optimization of geminal fit. Trust ratio= 0.40000
 Convergence reached after   2 iterations. Final gradient= 8.66D-16, Step= 4.23D-06, Delta= 1.28D-09

 Alpha:                 0.19532     0.81920     2.85917     9.50073    35.69989   197.79328
 Coeff:                 0.27070     0.30552     0.18297     0.10986     0.06810     0.04224


 All pairs explicitly correlated. Number of r12-pairs:           28

 Excluding core orbitals from MO domains

 AO(A)-basis ORBITAL           loaded. Number of functions:     178
 RI(R)-basis CC-PVTZ-F12/OPTRI loaded. Number of functions:     314
 DF-basis AUG-CC-PVTZ/JKFIT    loaded. Number of functions:     392

 Screening thresholds:   THRAO=  1.00D-10  THRMO=  1.00D-09  THRPROD=  1.00D-09
                         THRSW=  1.00D-05  THROV=  1.00D-12  THRAOF12= 1.00D-08

 CPU time for Fock operators                      1.17 sec

 Construction of ABS:
 Smallest eigenvalue of S          4.50E-04  (threshold= 1.00E-08)
 Ratio eigmin/eigmax               5.77E-05  (threshold= 1.00E-09)
 Smallest eigenvalue of S kept     4.50E-04  (threshold= 4.50E-04, 0 functions deleted, 314 kept)

 Construction of CABS:
 Smallest eigenvalue of S          7.66E-07  (threshold= 1.00E-08)
 Ratio eigmin/eigmax               7.66E-07  (threshold= 1.00E-09)
 Smallest eigenvalue of S kept     7.66E-07  (threshold= 7.66E-07, 0 functions deleted, 314 kept)

 CPU time for CABS singles                        0.02 sec

 CABS-singles contribution of  -0.00134496 patched into reference energy.
 New reference energy        -115.09931170

 AO(A)-basis ORBITAL           loaded. Number of functions:     178
 RI(R)-basis CC-PVTZ-F12/OPTRI loaded. Number of functions:     314
 DF-basis AUG-CC-PVTZ/MP2FIT   loaded. Number of functions:     396

 Screening thresholds:   THRAO=  1.00D-10  THRMO=  1.00D-09  THRPROD=  1.00D-09
                         THRSW=  1.00D-05  THROV=  1.00D-12  THRAOF12= 1.00D-08

 CPU time for 3-index integral evaluation         2.90 sec
 CPU time for first  half transformation          0.27 sec ( 9144.6 MFLOP/sec)
 CPU time for second half transformation          0.02 sec ( 3108.5 MFLOP/sec)
 CPU time for sorting                             0.02 sec
 CPU time for fitting                             0.02 sec (56971.3 MFLOP/sec)
 CPU time for tilde quantities                    0.02 sec (75522.6 MFLOP/sec)
 CPU time for assembly                            0.15 sec (82357.3 MFLOP/sec)
 CPU time for tranop_f12                          0.20 sec (79301.1 MFLOP/sec)
 CPU time for f12 integrals (total)               3.92 sec, Elapsed time:      4.27 sec
 CPU time for f12 matrices (total)                0.08 sec, Elapsed time:      0.11 sec

 Diagonal F12 approximation with fixed coefficients:  TSING= 0.500,  TTRIP= 0.250 (scaled by -1/beta)

 DF-MP2-F12 energy corrections:
 ==============================
 Approx.                                    Singlet             Triplet             Total
 DF-MP2-F12/3*C(DX,FIX)                -0.038227790975     -0.004205034599     -0.042432825574
 DF-MP2-F12/3*C(FIX)                   -0.036042087426     -0.003924914034     -0.039967001460
 DF-MP2-F12/3C(FIX)                    -0.035985796007     -0.004060269116     -0.040046065123

 DF-MP2-F12 correlation energies:
 ================================
 Approx.                                    Singlet             Triplet             Ecorr            Total Energy
 DF-MP2                                -0.291356483695     -0.152379383175     -0.443735866870   -115.543047569167
 DF-MP2-F12/3*C(DX,FIX)                -0.329584274670     -0.156584417774     -0.486168692444   -115.585480394741
 DF-MP2-F12/3*C(FIX)                   -0.327398571120     -0.156304297209     -0.483702868329   -115.583014570626
 DF-MP2-F12/3C(FIX)                    -0.327342279702     -0.156439652290     -0.483781931992   -115.583093634289

 SCS-DF-MP2 energies (F_SING= 1.20000  F_TRIP= 0.62222  F_PARALLEL= 0.33333):
 ============================================================================
 SCS-DF-MP2                            -0.444441618854   -115.543753321151
 SCS-DF-MP2-F12/3*C(DX,FIX)            -0.492931433996   -115.592243136293
 SCS-DF-MP2-F12/3*C(FIX)               -0.490134292497   -115.589445994794
 SCS-DF-MP2-F12/3C(FIX)                -0.490150963734   -115.589462666031
 Symmetry transformation completed.

 Number of N-1 electron functions:               7
 Number of N-2 electron functions:              28
 Number of singly external CSFs:              1183
 Number of doubly external CSFs:            700336
 Total number of CSFs:                      701520

 Length of J-op  integral file:             105.23 MB
 Length of K-op  integral file:             138.67 MB
 Length of 3-ext integral record:             0.00 MB

 Memory could be reduced to 48.01 Mwords without degradation in triples

 Integral transformation finished. Total CPU:   2.50 sec, npass=  1  Memory used:  24.86 MW

 Reference energy:                   -115.09931170

 Adding F12 terms to K(Cij), methodcc=6,  factor= 1.0

 ITER.      SQ.NORM     CORR.ENERGY   TOTAL ENERGY   ENERGY CHANGE        DEN1      VAR(S)    VAR(P)  DIIS     TIME  TIME/IT
   1      1.11824799    -0.45317855  -115.55249025    -0.00937598     0.00171233  0.15D-02  0.19D-02  1  1    12.42    27.19
   2      1.12576453    -0.45355795  -115.55286965    -0.00037940    -0.00911290  0.24D-04  0.24D-03  2  2    14.45    15.06
   3      1.12855915    -0.45374044  -115.55305214    -0.00018249    -0.00189532  0.15D-04  0.14D-04  3  3    16.38    10.75
   4      1.12953062    -0.45375816  -115.55306986    -0.00001772    -0.00061202  0.87D-06  0.12D-05  4  4    18.39     8.62
   5      1.12968932    -0.45375992  -115.55307162    -0.00000176    -0.00003893  0.23D-06  0.11D-06  5  5    20.49     7.36
   6      1.12973268    -0.45375759  -115.55306930     0.00000233    -0.00000431  0.36D-07  0.99D-08  6  6    22.44     6.49
   7      1.12974385    -0.45375671  -115.55306841     0.00000089    -0.00000303  0.40D-08  0.14D-08  6  1    24.38     5.87
   8      1.12974563    -0.45375677  -115.55306847    -0.00000006     0.00000034  0.69D-09  0.21D-09  6  3    26.39     5.40

 Norm of t1 vector:      0.05031172      S-energy:    -0.00000005      T1 diagnostic:  0.00950802
                                                                       D1 diagnostic:  0.02019040

 Adding energy correction from Wij-K(Fij), methodcc=6  factor= 1.0

  CCSD correlation energy              -0.453756765880
  MP2-F12 correction (uncoupled)       -0.038491015477
  C*T doubles correction               -0.001166520577
  f12b correction                       0.007098352361


 Total CPU time for triples:     31.17 sec


 RESULTS
 =======

  Reference energy                   -115.097966737747
  F12 singles correction               -0.001344964550

 F12 singles corrections added to reference energy

  New reference energy               -115.099311702297

  F12a singlet correction              -0.035744880782
  F12a triplet correction              -0.003912655273
  F12a total correction                -0.039657536054

 F12a corrections for ansatz F12/3C(FIX) added to CCSD energy

  CCSD-F12a singlet pair energy        -0.351574505612
  CCSD-F12a triplet pair energy        -0.141839745048
  CCSD-F12a correlation energy         -0.493414301934

  Triples (T) contribution             -0.016089170389
  Total correlation energy             -0.509503472323

  CCSD-F12a total energy             -115.592726004231
  CCSD[T]-F12a energy                -115.609375830877
  CCSD-T-F12a energy                 -115.608568050800
 !CCSD(T)-F12a total energy          -115.608815174620

 F12b corrections for ansatz F12/3C(FIX) added to CCSD(T)-F12a energy

  CCSD-F12b singlet pair energy        -0.344937427345
  CCSD-F12b triplet pair energy        -0.141378470953
  CCSD-F12b correlation energy         -0.486315949573

  Triples (T) contribution             -0.016089170389
  Total correlation energy             -0.502405119962

  CCSD-F12b total energy             -115.585627651870
  CCSD[T]-F12b energy                -115.602277478516
  CCSD-T-F12b energy                 -115.601469698439
 !CCSD(T)-F12b total energy          -115.601716822259

 Timing summary (sec):

 STEP                 CPU(USER)    SYS     CPU(TOT)    WALL
 Transformation          2.54      0.94      3.48      9.18
 CCSD iterations        18.58      2.65     21.23     43.36
 Triples                31.17      0.90     32.07     32.18
 MP2-F12                 5.28      0.40      5.68      5.71
 F12b energy             1.65      0.10      1.75      1.81

 Program statistics:

 Available memory in ccsd:               499999646
 Min. memory needed in ccsd:               2228017
 Max. memory used in ccsd:                 2807120
 Max. memory used in cckext:               2027429 ( 9 integral passes)



 **********************************************************************************************************************************
 DATASETS  * FILE   NREC   LENGTH (MB)   RECORD NAMES
              1      20      718.10       500      610      700      900      950      970     1000      129      960     1100   
                                          VAR    BASINP    GEOM    SYMINP    ZMAT    AOBASIS   BASIS     P2S    ABASIS      S 
                                         1400     1410     1200     1210     1080     1600     1650     1300     1700     1380   
                                           T        V       H0       H01     AOSYM     SMH    MOLCAS    ERIS     OPER     JKOP   

              2       7        4.13       700     1000      520     2100     7360     7350     7000   
                                         GEOM     BASIS   MCVARS     RHF    F12ABS    EF12   

 PROGRAMS   *        TOTAL   CCSD(T)   MP2-F12    HF-SCF       INT
 CPU TIMES  *        82.60     59.27      6.54      5.88     10.79
 REAL TIME  *       835.50 SEC
 DISK USED  *         2.16 GB
 **********************************************************************************************************************************
 SETTING XXX            =    "MMM"
 SETTING POINT          =        36.00000000                                  

 *** ### CH3OH


 XXX       RCO          ROH          RCH1         RCH2         RCH3           ACOH           AOCH1          AOCH2          AOCH3         AHH1           AHH2           AHH3            ENERGY       POINT
 "MMM"   1.42077677   0.96013932   1.12171752   1.08440070   1.09171752   108.12930637   111.65221523   107.18733878   111.65221523   61.43364279   180.00000000   298.56635721   -115.60881517   36.0000
                                                  

 CCSD(T)-F12/cc-pVTZ-F12 energy=   -115.601716822259

     CCSD(T)-F12         MP2-F12          HF-SCF
   -115.60171682   -115.58315892   -115.09796674
 **********************************************************************************************************************************
 Molpro calculation terminated
